# vtk DataFile Version 1.0
NBODY                      0                   0.01
ASCII
DATASET POLYDATA
POINTS 10 float
    -11.18508251064065     -4.567731960426963       2.76778707340938
    -6.637785834190081      1.243997501528334   -0.08112226978537362
    -7.718724939842277      1.316256055026243    -0.1228399310676148
    -6.406866034462111      1.677473977107486     -1.270205873712402
    -5.964717559688318     0.3300044267648986     -1.293618998843988
    -3.602447134875967     -4.567731960426963       2.76778707340938
     0.944849541574607      1.243997501528334   -0.08112226978537362
   -0.1360895640775892      1.316256055026243    -0.1228399310676148
     1.175769341302576      1.677473977107486     -1.270205873712402
     1.617917816076369     0.3300044267648986     -1.293618998843988
VERTICES 10 20
1 0
1 1
1 2
1 3
1 4
1 5
1 6
1 7
1 8
1 9
POINT_DATA 10
SCALARS mass float
LOOKUP_TABLE default
                   0.2
                   0.2
                   0.2
                   0.2
                   0.2
                   0.2
                   0.2
                   0.2
                   0.2
                   0.2
VECTORS velocity float
   -0.1113797314708959    -0.2504764474986988     0.2063749266461854
    0.2862758706589146    0.02620021014171559    -0.2403701275639615
   -0.1861734989216388     0.4629940408002643   -0.07045794024606009
    0.6677568005687933    -0.2424437187356563     0.1173144625712151
   -0.6564794408351731   0.003725915292375176   -0.01286132140737897
   -0.1113797314708959    -0.2428938121229341     0.2063749266461854
    0.2862758706589146    0.03378284551748027    -0.2403701275639615
   -0.1861734989216388      0.470576676176029   -0.07045794024606009
    0.6677568005687933    -0.2348610833598916     0.1173144625712151
   -0.6564794408351731    0.01130855066813986   -0.01286132140737897
