# vtk DataFile Version 1.0
NBODY                    0.2                   0.01
ASCII
DATASET POLYDATA
POINTS 10 float
3.231864395301882e+228 1.406204291951501e+228 -8.540921293828049e+227
1.330481497698697e+229 -2.743888762249573e+228 1.572616798804221e+227
9.641065162470241e+228 -1.787306033454513e+228 1.510599715995231e+227
 1.27468782134033e+229 -3.692301207119105e+228 2.787791630359553e+228
 1.63848390213109e+229 -9.826123747303689e+227  3.94880412678115e+228
6.518784831704603e+228 1.013396257961392e+229 -6.15520872736589e+228
-9.787705399188919e+229 -7.523104973007184e+229 4.311484439293725e+228
-9.307553934040346e+229 -2.350821001589118e+230 1.986757648831406e+229
-4.333894208177898e+229 -3.921204381056541e+229 2.960485061185519e+229
-6.355156362058905e+229 -8.933996819055811e+228 3.589432991058653e+229
VERTICES 10 20
1 0
1 1
1 2
1 3
1 4
1 5
1 6
1 7
1 8
1 9
POINT_DATA 10
SCALARS mass float
LOOKUP_TABLE default
                   0.2
                   0.2
                   0.2
                   0.2
                   0.2
                   0.2
                   0.2
                   0.2
                   0.2
                   0.2
VECTORS velocity float
1.700981260685201e+229 7.401075220797371e+228 -4.495221733593709e+228
  7.0025341984142e+229 -1.444151980131354e+229 8.276930520022217e+227
5.074244822352758e+229 -9.40687386028691e+228 7.950524821027532e+227
6.708883270212261e+229 -1.943316424799528e+229 1.467258752820818e+229
8.623599484900475e+229 -5.171644077528257e+228 2.078317961463764e+229
3.430939385107686e+229 5.333664515586272e+229 -3.23958354071889e+229
-5.151423894309959e+230 -3.959528933161677e+230 2.269202336470382e+229
-4.898712596863341e+230 -1.237274211362693e+231 1.045661920437581e+230
-2.280996951672579e+230 -2.063791779503443e+230 1.558150032202905e+230
-3.344819137925739e+230 -4.702103588976742e+229 1.889175258451923e+230
