# vtk DataFile Version 1.0
NBODY    0.09999999999999999                   0.01
ASCII
DATASET POLYDATA
POINTS 10 float
1.530883134616681e+228 6.660967698717634e+227 -4.045699560234339e+227
 6.30228077857278e+228 -1.299736782118219e+228 7.449237468019994e+226
4.566820340117483e+228 -8.466186474258219e+227  7.15547233892478e+226
6.037994943191036e+228 -1.748984782319575e+228 1.320532877538736e+228
7.761239536410426e+228 -4.654479669775432e+227 1.870486165317387e+228
3.087845446596917e+228 4.800298064027646e+228 -2.915625186647001e+228
-4.636281504878963e+229 -3.563576039845509e+229 2.042282102823344e+228
-4.408841337177008e+229 -1.113546790226424e+230 9.410957283938232e+228
-2.052897256505321e+229 -1.857412601553099e+229 1.402335028982614e+229
-3.010337224133165e+229 -4.231893230079067e+228  1.70025773260673e+229
VERTICES 10 20
1 0
1 1
1 2
1 3
1 4
1 5
1 6
1 7
1 8
1 9
POINT_DATA 10
SCALARS mass float
LOOKUP_TABLE default
                   0.2
                   0.2
                   0.2
                   0.2
                   0.2
                   0.2
                   0.2
                   0.2
                   0.2
                   0.2
VECTORS velocity float
1.700981260685201e+229 7.401075220797371e+228 -4.495221733593709e+228
  7.0025341984142e+229 -1.444151980131354e+229 8.276930520022217e+227
5.074244822352758e+229 -9.40687386028691e+228 7.950524821027532e+227
6.708883270212261e+229 -1.943316424799528e+229 1.467258752820818e+229
8.623599484900475e+229 -5.171644077528257e+228 2.078317961463764e+229
3.430939385107686e+229 5.333664515586272e+229 -3.23958354071889e+229
-5.151423894309959e+230 -3.959528933161677e+230 2.269202336470382e+229
-4.898712596863341e+230 -1.237274211362693e+231 1.045661920437581e+230
-2.280996951672579e+230 -2.063791779503443e+230 1.558150032202905e+230
-3.344819137925739e+230 -4.702103588976742e+229 1.889175258451923e+230
