# vtk DataFile Version 1.0
NBODY                      0                   0.02
ASCII
DATASET POLYDATA
POINTS 128 float
    -13.25705082675849      -5.55502848316884      3.368553775608976
    -8.709754150307912     0.2567009787864574     0.5196444324142219
    -9.790693255960109     0.3289595322843665     0.4779267711319806
    -8.478834350579945     0.6901774543656095    -0.6694391715128062
     -8.03668587580615     -0.657292095976978    -0.6928522966443929
    -9.709631308869723    -0.5011741968429307    -0.5193854149790771
    -9.579508491825429    -0.1170100533577877     0.8910045145599362
     -8.70529327404515    -0.5407944442632651     0.3779867210434943
    -8.781054470558013      1.135926643210917      0.632904778941213
     -9.69853734913411    -0.5555857740753943     -1.000265573155188
    -9.252220952585384      4.555707661176379     -4.898561580500417
    -7.851162961730317     -2.732362950364783     0.7899020876384732
    -9.170691177737345    -0.1163912683626353    -0.2420171728668409
    -8.972029531879237      1.111045930714688    0.06983309052648115
    -9.211630064405233     0.5943753542835092     0.4826547953528129
    -9.888591317018282    0.02979855714047707      -0.75897375113925
    -9.932944437501428     0.2241405139561185      1.043137338003109
    -9.166357978244978     -1.029723680423845     0.3082087071613627
    -8.602929643465115      4.441812947968389      -1.74116910601402
    -8.922572566174217    -0.9970107137957857    0.05452393308698272
    -10.59209062493804    -0.1276852923788909      1.008454739357749
    -9.787491667197987    0.05307315464920599     -1.317478101953373
     -8.15054903181254    -0.7170670027746514     -1.001832842799563
    -9.213253900055228   0.002924840295821855    0.05051355941947197
    -2.946637637479345      4.585569180702274      4.529816025213533
    -10.53285482389291     0.8395862064750531    -0.2623188833095131
    -9.818549602604628      3.025158628812846      5.087178253452703
    -8.185631806661098    -0.2407920433488157      1.645939780287092
    -8.445508884612593    -0.3048510852057107     0.7493257052780058
     -8.22024229296111      -4.07868951684408     -6.593265478782313
    -11.02532483479921    -0.6057466638383538     -1.358071959764667
    -10.03309245830124    -0.9846321047449541    -0.2177852491167675
    -8.885625761172363     0.4362160777513261     0.9222066571955326
    -8.938738177713546     -0.703195425438747     0.2635870665093955
     -9.18004255180486    -0.5823662882723898     0.3870558890999452
    -5.273263744738798    -0.2411587858381531      -1.35928832166376
    -9.224955417844695   -0.06302719034353109     0.1401831924341199
    -6.937416909934178      2.344309778330273      0.976637504075437
    -9.132189409519947    -0.6235296656851667      1.131624051951415
    -8.205822111591958      3.428036432813476       5.59906645964585
    -9.663273732287385    -0.5965090282520916     0.4045654788881762
    -9.044984297435263    -0.5757936126170861  -0.005270237864195742
    -8.262412302749206    -0.9595770999512158      -1.00168352809293
    -9.273361275242266     0.1773273039526851     0.2748460527504796
    -10.15435360904875    -0.4963167719227762    -0.1569081835745641
     -9.29499383659812    -0.4636483995585965     -1.006992059717939
    -8.548855592678317    0.01152201603289252    -0.7988586856272982
    -10.28961267118161     -1.004524938006281     -3.488189297710441
    -9.478664878441609    -0.1937561951121094     -1.139842492020533
    -9.423937180715633    -0.5075015558421593    -0.8684116622981738
    -8.991588373862282     0.6565129989351325    -0.1563200019077259
    -8.512832637623147     -1.252191999416008    -0.3564316697459494
    -12.17536665949208    -0.5496174872756643    -0.1361288152918664
     -8.58181818454015      2.052503765121841     0.7277817592186563
    -9.918773557636126     0.3230433367357642      1.151133902469586
    -8.170517309825101    -0.4880604077407359     0.6285751030375519
    -10.02039679975728    -0.6344486258289445     0.6103057644214005
    -9.984858511337308     -1.316122996386177     -1.409654165652054
    -8.639420917355178    0.07581480304315964    -0.1634870264262361
     -9.00133206404864    -0.1985119358151271     -2.083149062679414
     -10.3714811551381    -0.7053448447865381     0.8155680932356048
    -9.307494855636024    -0.1906732918446466    -0.1073935718621786
    -9.287793911641929    -0.3712439014498159      -0.81598237595215
    -9.850818671529828      1.198713719612999     0.2067617572148494
    -4.121169598320607      -5.55502848316884      3.368553775608976
    0.4261270781299675     0.2567009787864574     0.5196444324142219
   -0.6548120275222296     0.3289595322843665     0.4779267711319806
    0.6570468778579368     0.6901774543656095    -0.6694391715128062
      1.09919535263173     -0.657292095976978    -0.6928522966443929
   -0.5737500804318429    -0.5011741968429307    -0.5193854149790771
   -0.4436272633875493    -0.1170100533577877     0.8910045145599362
    0.4305879543927293    -0.5407944442632651     0.3779867210434943
    0.3548267578798665      1.135926643210917      0.632904778941213
   -0.5626561206962304    -0.5555857740753943     -1.000265573155188
   -0.1163397241475046      4.555707661176379     -4.898561580500417
     1.284718266707563     -2.732362950364783     0.7899020876384732
   -0.0348099492994649    -0.1163912683626353    -0.2420171728668409
     0.163851696558643      1.111045930714688    0.06983309052648115
  -0.07574883596735305     0.5943753542835092     0.4826547953528129
   -0.7527100885804021    0.02979855714047707      -0.75897375113925
   -0.7970632090635483     0.2241405139561185      1.043137338003109
  -0.03047674980709836     -1.029723680423845     0.3082087071613627
    0.5329515849727642      4.441812947968389      -1.74116910601402
    0.2133086622636622    -0.9970107137957857    0.05452393308698272
    -1.456209396500162    -0.1276852923788909      1.008454739357749
   -0.6516104387601072    0.05307315464920599     -1.317478101953373
    0.9853321966253397    -0.7170670027746514     -1.001832842799563
  -0.07737267161734884   0.002924840295821855    0.05051355941947197
     6.189243590958535      4.585569180702274      4.529816025213533
     -1.39697359545503     0.8395862064750531    -0.2623188833095131
   -0.6826683741667487      3.025158628812846      5.087178253452703
    0.9502494217767818    -0.2407920433488157      1.645939780287092
    0.6903723438252864    -0.3048510852057107     0.7493257052780058
    0.9156389354767693      -4.07868951684408     -6.593265478782313
    -1.889443606361332    -0.6057466638383538     -1.358071959764667
    -0.897211229863359    -0.9846321047449541    -0.2177852491167675
    0.2502554672655144     0.4362160777513261     0.9222066571955326
    0.1971430507243337     -0.703195425438747     0.2635870665093955
   -0.0441613233669802    -0.5823662882723898     0.3870558890999452
     3.862617483699083    -0.2411587858381531      -1.35928832166376
  -0.08907418940681566   -0.06302719034353109     0.1401831924341199
     2.198464318503701      2.344309778330273      0.976637504075437
  0.003691818917932466    -0.6235296656851667      1.131624051951415
    0.9300591168459214      3.428036432813476       5.59906645964585
   -0.5273925038495051    -0.5965090282520916     0.4045654788881762
    0.0908969310026162    -0.5757936126170861  -0.005270237864195742
    0.8734689256886732    -0.9595770999512158      -1.00168352809293
   -0.1374800468043862     0.1773273039526851     0.2748460527504796
    -1.018472380610875    -0.4963167719227762    -0.1569081835745641
   -0.1591126081602408    -0.4636483995585965     -1.006992059717939
    0.5870256357595629    0.01152201603289252    -0.7988586856272982
    -1.153731442743728     -1.004524938006281     -3.488189297710441
   -0.3427836500037298    -0.1937561951121094     -1.139842492020533
   -0.2880559522777535    -0.5075015558421593    -0.8684116622981738
    0.1442928545755979     0.6565129989351325    -0.1563200019077259
     0.623048590814733     -1.252191999416008    -0.3564316697459494
    -3.039485431054196    -0.5496174872756643    -0.1361288152918664
    0.5540630438977292      2.052503765121841     0.7277817592186563
   -0.7828923291982441     0.3230433367357642      1.151133902469586
    0.9653639186127787    -0.4880604077407359     0.6285751030375519
   -0.8845155713194046    -0.6344486258289445     0.6103057644214005
    -0.848977282899428     -1.316122996386177     -1.409654165652054
    0.4964603110827017    0.07581480304315964    -0.1634870264262361
    0.1345491643892398    -0.1985119358151271     -2.083149062679414
    -1.235599926700225    -0.7053448447865381     0.8155680932356048
   -0.1716136271981448    -0.1906732918446466    -0.1073935718621786
   -0.1519126832040492    -0.3712439014498159      -0.81598237595215
    -0.714937443091948      1.198713719612999     0.2067617572148494
VERTICES 128 256
1 0
1 1
1 2
1 3
1 4
1 5
1 6
1 7
1 8
1 9
1 10
1 11
1 12
1 13
1 14
1 15
1 16
1 17
1 18
1 19
1 20
1 21
1 22
1 23
1 24
1 25
1 26
1 27
1 28
1 29
1 30
1 31
1 32
1 33
1 34
1 35
1 36
1 37
1 38
1 39
1 40
1 41
1 42
1 43
1 44
1 45
1 46
1 47
1 48
1 49
1 50
1 51
1 52
1 53
1 54
1 55
1 56
1 57
1 58
1 59
1 60
1 61
1 62
1 63
1 64
1 65
1 66
1 67
1 68
1 69
1 70
1 71
1 72
1 73
1 74
1 75
1 76
1 77
1 78
1 79
1 80
1 81
1 82
1 83
1 84
1 85
1 86
1 87
1 88
1 89
1 90
1 91
1 92
1 93
1 94
1 95
1 96
1 97
1 98
1 99
1 100
1 101
1 102
1 103
1 104
1 105
1 106
1 107
1 108
1 109
1 110
1 111
1 112
1 113
1 114
1 115
1 116
1 117
1 118
1 119
1 120
1 121
1 122
1 123
1 124
1 125
1 126
1 127
POINT_DATA 128
SCALARS mass float
LOOKUP_TABLE default
              0.015625
              0.015625
              0.015625
              0.015625
              0.015625
              0.015625
              0.015625
              0.015625
              0.015625
              0.015625
              0.015625
              0.015625
              0.015625
              0.015625
              0.015625
              0.015625
              0.015625
              0.015625
              0.015625
              0.015625
              0.015625
              0.015625
              0.015625
              0.015625
              0.015625
              0.015625
              0.015625
              0.015625
              0.015625
              0.015625
              0.015625
              0.015625
              0.015625
              0.015625
              0.015625
              0.015625
              0.015625
              0.015625
              0.015625
              0.015625
              0.015625
              0.015625
              0.015625
              0.015625
              0.015625
              0.015625
              0.015625
              0.015625
              0.015625
              0.015625
              0.015625
              0.015625
              0.015625
              0.015625
              0.015625
              0.015625
              0.015625
              0.015625
              0.015625
              0.015625
              0.015625
              0.015625
              0.015625
              0.015625
              0.015625
              0.015625
              0.015625
              0.015625
              0.015625
              0.015625
              0.015625
              0.015625
              0.015625
              0.015625
              0.015625
              0.015625
              0.015625
              0.015625
              0.015625
              0.015625
              0.015625
              0.015625
              0.015625
              0.015625
              0.015625
              0.015625
              0.015625
              0.015625
              0.015625
              0.015625
              0.015625
              0.015625
              0.015625
              0.015625
              0.015625
              0.015625
              0.015625
              0.015625
              0.015625
              0.015625
              0.015625
              0.015625
              0.015625
              0.015625
              0.015625
              0.015625
              0.015625
              0.015625
              0.015625
              0.015625
              0.015625
              0.015625
              0.015625
              0.015625
              0.015625
              0.015625
              0.015625
              0.015625
              0.015625
              0.015625
              0.015625
              0.015625
              0.015625
              0.015625
              0.015625
              0.015625
              0.015625
              0.015625
VECTORS velocity float
   0.00862303977905178       -0.1724306346549     0.1740039209665167
    0.4062786419088623     0.1042460229855144    -0.2727411332436302
  -0.06617072767169109      0.541039853644063    -0.1028289459257288
    0.7877595718187409    -0.1643979058918575    0.08494345689154635
   -0.5364766695852254    0.08177172813617398   -0.04523232708704771
    0.1154896567890394      0.336443648141509    -0.4299563377727948
  -0.02697051944363298    -0.4889896088048165     0.5396137755663453
   -0.2695071794118439     0.2580692353358915    -0.4422163117461121
    -0.379031715051345     0.3350523220735331     0.1585944620488668
    0.3710165762850633    -0.0131113604460368    0.09461367271212882
   -0.1213885593565258   -0.05007633214736519   -0.07463792479407814
    -0.307158597399042    -0.1229652268562823     0.2965830283518653
   0.05386822556392899     0.8649825288007514     0.3647098302370378
   -0.2869639083996408     0.3713919354061878    -0.1159276941868533
    0.2008759144865573     0.4199064171561232     0.0329281422995744
    0.3002120946463971     0.3104183764605937      0.373901341788119
   -0.1626770667546786   0.005599255557252922   0.005358988787695695
   -0.1038418399719333     0.3950323414206758    -0.4750711627691833
   -0.2303597732672574    -0.1463920236016889     0.1320010804615425
  -0.01294088737525567    -0.2150997873037502    -0.2675994837840438
    0.2483434384465547     0.1049999021385262      0.253244336788211
   -0.2017548131821464    -0.3671332524327323     0.3972964731022676
    0.6659084628739509       0.18557655805587    -0.2456988770605019
  -0.01426859735568803      0.329437118313177   -0.04038324902141409
    0.1031876865152358   -0.08376011414430783   -0.09592407831117519
   0.08609440127483817     -0.630489689134172    -0.2907410147459847
  -0.06198587282066318     0.1008245915792765    -0.1305754287439829
  -0.02015710892655468     0.2538536251716526   -0.03311140400508931
    0.3266831373266497    -0.1177715845996626    -0.4266758037585389
  -0.06296147368478805   -0.09419544097587584    0.05460126476933808
   0.01057672584634007    -0.7372697725417506   -0.09659183342306048
    0.2135746886773025   -0.07914812829599095   -0.09219718846928865
  -0.02488762469598022    -0.6486411288753846     0.1587346775677849
    0.2521089667225819    -0.9012616781326739    -0.2034379136372912
   -0.2359725172207943    0.06397210079571422   -0.01027459000920626
   -0.2332566988191343   -0.06581896894242131     0.1217594928485482
    0.2008562745212805    -0.8354961693379502      0.237368447034171
    0.1342852644763909   -0.06820706147957352    0.05819249751264351
   -0.1641412899253166    -0.0647941754019709    0.04963077326444684
   0.02268446989936478    -0.1110300801545657    -0.2030392038533358
   -0.1969042993777786    -0.4392879276890336    -0.2538933246887988
   0.06981110985876923     0.2567042960114551     0.7490544721591829
   -0.2527261981374914    -0.2958397329337656    -0.2404213802037011
   0.03094303912824215     0.0469130853910496    -0.3279800697201408
   -0.5656348936512261     0.5676016910899689   -0.02054067071929506
   0.09063150729955019    -0.2312377370441963    -0.1398271595142377
    0.3628728255365438     0.2691246969664317      0.473259106589434
  -0.05529596177309762    0.04794059538994472    -0.2319728744368828
    0.2050122661584188    -0.4145677456789839    -0.5374530514716038
     0.032567849067747     0.4928146745553273    0.02824761840642361
  -0.06602249820069805     0.1765548119288599     0.7290179336608857
   -0.2139547420465011    0.09345709916413122    -0.2036795089554299
   -0.4166427833924974    -0.2232712375496676     0.2101579889820062
   -0.1221108507642312     0.1640894235436613    -0.2320977406041393
   -0.5197661106738215    0.07615937093347316    -0.1134099326034636
    0.3769548057255585    -0.3482844478529455    -0.1772040759770674
    0.3645543811761116     0.2429058667795645   -0.08051520622542965
   -0.3148318365914477    -0.2243310884433687     0.2714174828229338
  -0.04519739653039506     0.1515750460820013      0.174378636421592
   -0.3008698173383098     0.2852090573774068     0.3429432225542536
    -0.103366547100417   -0.07410346826327559    0.01772684910386866
    0.2782954935577931     0.2121153465643434    -0.2487342019777879
    0.6998410883596919    0.05961218967333505     0.4178589982476971
   -0.3237142278295075     0.2240086969875262   -0.09955086850060792
   0.00862303977905178    -0.1632947534264621     0.1740039209665167
    0.4062786419088623     0.1133819042139523    -0.2727411332436302
  -0.06617072767169109     0.5501757348725009    -0.1028289459257288
    0.7877595718187409    -0.1552620246634196    0.08494345689154635
   -0.5364766695852254    0.09090760936461185   -0.04523232708704771
    0.1154896567890394     0.3455795293699468    -0.4299563377727948
  -0.02697051944363298    -0.4798537275763786     0.5396137755663453
   -0.2695071794118439     0.2672051165643294    -0.4422163117461121
    -0.379031715051345      0.344188203301971     0.1585944620488668
    0.3710165762850633   -0.00397547921759892    0.09461367271212882
   -0.1213885593565258   -0.04094045091892731   -0.07463792479407814
    -0.307158597399042    -0.1138293456278445     0.2965830283518653
   0.05386822556392899     0.8741184100291893     0.3647098302370378
   -0.2869639083996408     0.3805278166346256    -0.1159276941868533
    0.2008759144865573     0.4290422983845611     0.0329281422995744
    0.3002120946463971     0.3195542576890316      0.373901341788119
   -0.1626770667546786     0.0147351367856908   0.005358988787695695
   -0.1038418399719333     0.4041682226491137    -0.4750711627691833
   -0.2303597732672574     -0.137256142373251     0.1320010804615425
  -0.01294088737525567    -0.2059639060753123    -0.2675994837840438
    0.2483434384465547     0.1141357833669641      0.253244336788211
   -0.2017548131821464    -0.3579973712042944     0.3972964731022676
    0.6659084628739509     0.1947124392843078    -0.2456988770605019
  -0.01426859735568803     0.3385729995416149   -0.04038324902141409
    0.1031876865152358   -0.07462423291586995   -0.09592407831117519
   0.08609440127483817    -0.6213538079057341    -0.2907410147459847
  -0.06198587282066318     0.1099604728077143    -0.1305754287439829
  -0.02015710892655468     0.2629895064000904   -0.03311140400508931
    0.3266831373266497    -0.1086357033712247    -0.4266758037585389
  -0.06296147368478805   -0.08505955974743797    0.05460126476933808
   0.01057672584634007    -0.7281338913133127   -0.09659183342306048
    0.2135746886773025   -0.07001224706755307   -0.09219718846928865
  -0.02488762469598022    -0.6395052476469467     0.1587346775677849
    0.2521089667225819     -0.892125796904236    -0.2034379136372912
   -0.2359725172207943     0.0731079820241521   -0.01027459000920626
   -0.2332566988191343   -0.05668308771398343     0.1217594928485482
    0.2008562745212805    -0.8263602881095123      0.237368447034171
    0.1342852644763909   -0.05907118025113564    0.05819249751264351
   -0.1641412899253166   -0.05565829417353302    0.04963077326444684
   0.02268446989936478    -0.1018941989261278    -0.2030392038533358
   -0.1969042993777786    -0.4301520464605957    -0.2538933246887988
   0.06981110985876923     0.2658401772398929     0.7490544721591829
   -0.2527261981374914    -0.2867038517053278    -0.2404213802037011
   0.03094303912824215    0.05604896661948748    -0.3279800697201408
   -0.5656348936512261     0.5767375723184068   -0.02054067071929506
   0.09063150729955019    -0.2221018558157584    -0.1398271595142377
    0.3628728255365438     0.2782605781948696      0.473259106589434
  -0.05529596177309762     0.0570764766183826    -0.2319728744368828
    0.2050122661584188     -0.405431864450546    -0.5374530514716038
     0.032567849067747     0.5019505557837652    0.02824761840642361
  -0.06602249820069805     0.1856906931572978     0.7290179336608857
   -0.2139547420465011     0.1025929803925691    -0.2036795089554299
   -0.4166427833924974    -0.2141353563212297     0.2101579889820062
   -0.1221108507642312     0.1732253047720992    -0.2320977406041393
   -0.5197661106738215    0.08529525216191104    -0.1134099326034636
    0.3769548057255585    -0.3391485666245077    -0.1772040759770674
    0.3645543811761116     0.2520417480080024   -0.08051520622542965
   -0.3148318365914477    -0.2151952072149309     0.2714174828229338
  -0.04519739653039506     0.1607109273104392      0.174378636421592
   -0.3008698173383098     0.2943449386058447     0.3429432225542536
    -0.103366547100417   -0.06496758703483771    0.01772684910386866
    0.2782954935577931     0.2212512277927813    -0.2487342019777879
    0.6998410883596919    0.06874807090177293     0.4178589982476971
   -0.3237142278295075      0.233144578215964   -0.09955086850060792
