# vtk DataFile Version 1.0
NBODY      1.600000000000001                   0.02
ASCII
DATASET POLYDATA
POINTS 128 float
    -13.22782676678904     -5.814630845845344      3.636665536677818
    -8.352634525448808     0.2386584749554796    -0.1020057225619616
     -9.64900616015616     0.9626582350812712     0.2601636016574729
    -7.427013728337533     0.2410549359977325    -0.4097034179202422
    -9.158902458923025    -0.4218266407683504     -0.683232276212846
    -9.089011449309275    0.06561157760653996     -1.021784372770293
    -9.504018630177782    -0.8447382791668134      1.411069277988975
    -9.462757793490217    -0.1937652333820398    -0.3979359150975535
    -9.433361744638054         1.397909482103     0.7208426979448155
    -8.873598028647796    -0.3744035841316287    -0.7125146157298732
    -9.438014231431261      4.454758819847039     -4.994852922873271
    -8.366644628781414     -2.832465422958904      1.227218727087368
    -9.299939084118849     0.7096421447560043     0.7858151909737496
    -9.438403504140895      1.376515136446447   -0.02566641107023418
    -8.943315683792898     0.7792847862726511     0.3301357684517844
    -9.152326910263925     0.2557827387912197   -0.03653865718928917
    -10.25459293589696     0.1683609601427546     0.8116596413665966
    -9.194704448011311    0.04548055056299189    -0.3732651861341136
    -8.964739080423154       4.15902510259026     -1.512075605138172
    -9.006795585573352    -0.9128877679534864    -0.1743166915340477
    -9.926097696856965     0.1014057198086648       1.17936576017471
    -9.764028714676817    -0.6239638787978565    -0.3907306430158906
    -7.313474832870027    -0.4020697312367565     -1.199073225265449
    -10.23162809941495     0.9800265471298755       1.24269565223445
    -2.779792352019117       4.42743041301171      4.355215763601549
    -10.15657017360621    -0.3053057893216039    -0.6326224306716168
    -9.899751439045756      3.168785994453442      4.849543989830791
    -8.328113057970507     0.1597640164693642      1.392840988298408
    -8.166618679836301    -0.4945585110630207    -0.1159246927510141
     -8.31640561221117     -4.215218393654715     -6.483380018570814
    -10.85911923172397     -1.736056248899175     -1.421549158982782
    -9.447143033641071    -0.8227954934996509    -0.2837705107466928
    -9.052874779463941     -0.673964651100493     0.8091453955075134
    -8.804653001873625     -1.707742661604116    -0.3105384244149196
    -9.241485187171039     -0.285470632367556   0.002693580721771178
    -5.670819304727805    -0.3442129592619314     -1.135211135531163
    -8.895390826877836      -1.19764605303634     0.3309999246498367
    -6.760363823498231      2.173672516732839      1.043713973003826
    -9.426605211818925    -0.5354189281656819     0.8948978841769848
    -8.169879442507892      3.232375268464206      5.244489455492348
     -9.71065183080986     -1.014396916081404    -0.0902953741678794
    -9.117205932153871   -0.09570177149220616     0.9416566635199526
     -8.76418879704543     -1.195758852182537     -1.169557288339165
    -7.997957347045641    -0.6978137629567122     -1.847521066188684
      -10.727428919968     0.4186069678191603    -0.1759606389841296
    -9.336151536394846    -0.3571493861654068    -0.5797334599412872
    -8.268215509515471     0.3132240894020689     0.1426678864955173
    -10.34638848440792    -0.9119869058742454     -3.783746647529361
     -9.11679493003779    -0.8773136532231792     -1.492954038564474
    -9.375787309135692  -0.007990179645041952    -0.8051413814029424
    -9.171457229287938     0.8183989413443441      1.005603208533751
    -9.012752777671521    -0.7779212023326718    -0.5547953332083231
    -12.73393838293254    -0.8915391043015752     0.1981919760319952
    -8.809690536696209      2.144593942388074     0.3199221858172404
    -10.33142455092059     0.2217282429985471     0.8271417743632232
    -7.902862521459403    -0.8745625868873719     0.2245247098513249
    -9.136627275019494    -0.1756926522320996     0.2507196564654002
    -10.38083258882979     -1.511809568184846    -0.8563561604629099
    -9.039584048904457      0.142374014967722     0.1164299834656088
    -9.485742148202048     0.1869447551989127     -1.259201295432307
    -10.27321214231837    -0.6646900216834675     0.7054793577698235
    -8.622965139284105     0.3627197005734434    -0.2178415388689441
    -8.481357560740287    -0.2642376774459792   -0.06937096341255486
    -10.20548258116868      1.319690149626477    0.05513252288691926
    -4.107729283886056     -5.790551435541122      3.630724511982153
    0.7538418463914567     0.2540752297955081    -0.1016651568907456
   -0.5422532099137016     0.9774348890717786     0.2600757945241635
     1.678880807934779     0.2568808033609878    -0.4102166918487122
  -0.05251155848551094    -0.4069809121761611    -0.6836467437864311
   0.01789519009818911    0.08068667948996291     -1.021540513057925
   -0.3965742224561027    -0.8293904751620389       1.41070399742011
   -0.3561032036416967    -0.1787061364151525    -0.3977408729561466
   -0.3255434319449332      1.413350482633963     0.7212519825560086
     0.233572282107725    -0.3594054534071252    -0.7122915136219544
   -0.3176203000953496      4.469203100802527     -4.994447488109706
    0.7428435621156683     -2.820054348881884      1.228057541455647
   -0.1929849719589941     0.7247682118574136     0.7858783041037878
    -0.330775440323496      1.391672804845547   -0.02544230470063177
    0.1638635933413481     0.7945238257329144     0.3303395123935223
  -0.04563473687224396     0.2707237401298991   -0.03619601989485641
    -1.147907349861098     0.1832789947238248     0.8108447366658312
  -0.08769668161963219     0.0605477477206208    -0.3732454615747409
    0.1505049777149547      4.174861338862563     -1.512157641429465
    0.1003157546933131    -0.8980481192685738    -0.1743175018694939
   -0.8198989779696408     0.1167450479940485      1.177981149675099
   -0.6571679842002053    -0.6089344528804733    -0.3900313581792978
     1.792097856400781    -0.3877311299943152     -1.200570321665441
     -1.12552721738395     0.9951870028503492      1.243594244847429
     6.339129332376912      4.457567200496293      4.367962890476638
    -1.051175496490131    -0.2909952424005159     -0.632054533773351
   -0.7835954096022458      3.184210365534045      4.847587851675523
    0.7791175722038979     0.1750041623695279      1.394525039602574
    0.9394984661900402    -0.4796715905210569    -0.1154157880378913
    0.8059682525381734      -4.20160470966674     -6.485110894974786
    -1.754232744914483     -1.719322500056769     -1.419115100040174
   -0.3404252518965697    -0.8071137168827346    -0.2836712354505384
   0.05431806557463219    -0.6587490125553453     0.8095745112171567
      0.30257116596185     -1.693011892428932     -0.310511875602818
   -0.1345734726593179    -0.2702646506735495   0.002664656196287284
     3.418594408766145    -0.3294856314962498     -1.143795625252506
    0.2115253402126278     -1.182562192397527       0.33107830817135
     2.345856058512508      2.194159253114796       1.04618893862723
   -0.3190344539346469    -0.5201819309926573     0.8948979401045947
    0.9488108109582808      3.248698800234493       5.24620823825291
   -0.6038335091479475     -0.998871031322983    -0.0904917292371111
  -0.01028745717984613   -0.08059055794352983     0.9417511661859791
    0.3430075827627989     -1.181505702139895     -1.170396235420942
     1.109568882315651    -0.6828280756459937     -1.848627802598414
    -1.622184793508099     0.4337880121727039    -0.1758316271658391
   -0.2289793191926294    -0.3422160970907392    -0.5797062112799845
    0.8380431468221727     0.3285010280132443     0.1424319029239741
     -1.23459657450149    -0.8964609367871094     -3.780761423717751
 -0.009197644512527043    -0.8622981165695129     -1.492698320224102
   -0.2687389891691072    0.00713947262192862    -0.8048754498037386
  -0.06423963103332159     0.8336899219657188      1.005849879834655
   0.09433583348124788    -0.7634462668857077    -0.5550323432970061
     -3.63971766727768     -0.873431970962918     0.1968359278664067
    0.2992654658052233      2.160755408713919     0.3205482337547392
    -1.224694321834867     0.2367010054052196     0.8263905822349171
     1.202806756333487    -0.8600561348047701     0.2252202577972227
  -0.02990772218434268    -0.1603047413171788     0.2503801136834845
    -1.273314327629653     -1.495579304475527    -0.8553245627158774
   0.06695833035002074     0.1575682933859609     0.1165069954695804
   -0.3774580836881904     0.2018786748209436     -1.259179584136538
    -1.167110792842208    -0.6487125469966766     0.7044264403660453
    0.4836614526663224     0.3777458579936223    -0.2177121678201015
    0.6254576378048573    -0.2492440208005192   -0.06940696631247537
    -1.098360858533324      1.333699639981658    0.05527190202615819
VERTICES 128 256
1 0
1 1
1 2
1 3
1 4
1 5
1 6
1 7
1 8
1 9
1 10
1 11
1 12
1 13
1 14
1 15
1 16
1 17
1 18
1 19
1 20
1 21
1 22
1 23
1 24
1 25
1 26
1 27
1 28
1 29
1 30
1 31
1 32
1 33
1 34
1 35
1 36
1 37
1 38
1 39
1 40
1 41
1 42
1 43
1 44
1 45
1 46
1 47
1 48
1 49
1 50
1 51
1 52
1 53
1 54
1 55
1 56
1 57
1 58
1 59
1 60
1 61
1 62
1 63
1 64
1 65
1 66
1 67
1 68
1 69
1 70
1 71
1 72
1 73
1 74
1 75
1 76
1 77
1 78
1 79
1 80
1 81
1 82
1 83
1 84
1 85
1 86
1 87
1 88
1 89
1 90
1 91
1 92
1 93
1 94
1 95
1 96
1 97
1 98
1 99
1 100
1 101
1 102
1 103
1 104
1 105
1 106
1 107
1 108
1 109
1 110
1 111
1 112
1 113
1 114
1 115
1 116
1 117
1 118
1 119
1 120
1 121
1 122
1 123
1 124
1 125
1 126
1 127
POINT_DATA 128
SCALARS mass float
LOOKUP_TABLE default
              0.015625
              0.015625
              0.015625
              0.015625
              0.015625
              0.015625
              0.015625
              0.015625
              0.015625
              0.015625
              0.015625
              0.015625
              0.015625
              0.015625
              0.015625
              0.015625
              0.015625
              0.015625
              0.015625
              0.015625
              0.015625
              0.015625
              0.015625
              0.015625
              0.015625
              0.015625
              0.015625
              0.015625
              0.015625
              0.015625
              0.015625
              0.015625
              0.015625
              0.015625
              0.015625
              0.015625
              0.015625
              0.015625
              0.015625
              0.015625
              0.015625
              0.015625
              0.015625
              0.015625
              0.015625
              0.015625
              0.015625
              0.015625
              0.015625
              0.015625
              0.015625
              0.015625
              0.015625
              0.015625
              0.015625
              0.015625
              0.015625
              0.015625
              0.015625
              0.015625
              0.015625
              0.015625
              0.015625
              0.015625
              0.015625
              0.015625
              0.015625
              0.015625
              0.015625
              0.015625
              0.015625
              0.015625
              0.015625
              0.015625
              0.015625
              0.015625
              0.015625
              0.015625
              0.015625
              0.015625
              0.015625
              0.015625
              0.015625
              0.015625
              0.015625
              0.015625
              0.015625
              0.015625
              0.015625
              0.015625
              0.015625
              0.015625
              0.015625
              0.015625
              0.015625
              0.015625
              0.015625
              0.015625
              0.015625
              0.015625
              0.015625
              0.015625
              0.015625
              0.015625
              0.015625
              0.015625
              0.015625
              0.015625
              0.015625
              0.015625
              0.015625
              0.015625
              0.015625
              0.015625
              0.015625
              0.015625
              0.015625
              0.015625
              0.015625
              0.015625
              0.015625
              0.015625
              0.015625
              0.015625
              0.015625
              0.015625
              0.015625
              0.015625
VECTORS velocity float
   0.02786084417313057    -0.1520170848110082     0.1610296503613562
    0.1326214726966953   -0.08823173548107108    -0.4610942429632052
     0.224706150426825     0.2542283288551183    -0.1388631012114978
    0.5193107925615368    -0.3599276375614761     0.2163885807077035
   -0.8489581377139149     0.3354936979454614    0.08098999357830405
    0.5080680863086878       0.28154580248351    0.01904393599341921
    0.1240048255787263    -0.3797194167605547     0.1103614719273891
   -0.3265452108116511     0.1227107176912758    -0.5373437724478978
    -0.406821645529987   -0.01738025497573854    -0.0440515083576802
    0.3774023024972744    0.05455854029272312     0.3570272640718041
   -0.1106029174120053   -0.07627314302633634   -0.04535200030450755
   -0.3336949566547099   -0.00173006480636077     0.2463096786881949
  -0.07667657453993496      0.376613654890033     0.6712096194573469
   -0.2850520306578482   -0.02010599610378099   0.007754137497536254
    0.0650564431511826    -0.1804717859755875    -0.1324706142902447
     0.607331916052184   -0.07322761317484125     0.5176575621338225
  -0.03933838780473471    0.08597344688268933   -0.01411657807358014
   -0.0942494020019667     0.7833280515196334    -0.2865066892934243
   -0.2211741076494708    -0.2093673046307763     0.1552888399326924
  -0.08757798141327694     0.2705413104755618     -0.135425555809103
    0.5251405899196688     0.2036839857091587   -0.09983099762890273
     0.272959498236252    -0.3893510104319562     0.7058511250131991
    0.4130061583677248     0.2151367924742507   -0.04471500700164417
    -0.823777996511213     0.6801991295832663     0.9765491239991596
    0.1056511393294911    -0.1146689631315401    -0.1229663483811797
    0.4133547594758233     -0.771848612225813    -0.1459889271618457
  -0.03909009675174269    0.07779729862090842    -0.1671608268353825
   -0.1631531892477689     0.2383752733193872    -0.2845348148835895
 -0.008730661753848486   -0.07706250954922915    -0.5962678257824423
  -0.05711018191372353   -0.07612707192004549    0.08306294610114437
    0.1896907249582555    -0.6633438499784665    0.01682651131392826
    0.4990253225948472      0.290756860200352    0.02147717857757601
   -0.2231194109154216    -0.6382285904935195     -0.292627342005845
-0.0003761911082545001    -0.3731288008148168    -0.4156828166426007
   0.08138766710851268     0.3110152719581348    -0.3672932881557045
   -0.2696793957386046   -0.06211624227453513     0.1589667242516109
    0.1528913626135654    -0.5246788301133626 -0.0002661013689881433
   0.08671327835077638    -0.1450179087810528    0.02454079518578439
   -0.1515915538088052     0.1739871114615466    -0.3148472316567344
   0.02217454332298645     -0.133882622144099    -0.2411548569243171
    0.1552423246088855   -0.06359940997393485    -0.3973838190411503
   -0.1161476131494602     0.2594765609762769     0.3984656639344391
    -0.384764688169987  -0.005168560550051153    0.02757741023334977
     1.008188905141956    -0.7866041118416054     -1.575332964597511
    -0.174250410792773     0.5493990799101028  -0.003249797339858975
     0.111848778226655     0.3170642642377819     0.5583244635496476
   -0.1542051951097279    0.04990453863159763     0.6072690705354137
  -0.01593313327493558     0.0662636486417628    -0.1393073424898533
    0.2510232966264782    -0.3636839191262805    0.02444761043971923
   0.08272493996335334    0.06799013770097062    0.05660740408552121
   -0.1615833226652248     0.0438129028715078     0.5428423392135724
   -0.4117964387559883      0.525009951787498   -0.01721479045803308
   -0.2881978161932309    -0.2034015825055568     0.2063601597489254
   -0.1647666914948336   -0.05429155744202803    -0.2700047996933341
   -0.1305404157568865    -0.3234453298095509    -0.4717943836708774
 -0.005921311228144834    -0.1339240373028674    -0.3287653361061739
    0.6989490882160393     0.2999987765651339    -0.4254405789850453
   -0.1752056821539265   -0.02642807780379992     0.4000238234203228
   -0.3816653651530972   -0.06769433082599094    0.06405528721079309
   -0.2623421035358912     0.1588592839049683     0.7257643168460681
    0.2140054402043316     0.1191238184442811    -0.1417350168167871
    0.4397865929571169     0.2516925853378459    0.08192735931459927
    0.3306680328103379     0.1144430241167098     0.5081920856741169
    -0.105816436657581   -0.06261984904771536   -0.07601702273845903
   0.00814005477789935    -0.1310453116157571     0.1535493507327022
   0.09545662528870365   -0.07798125943006187    -0.4608049218490045
     0.187863084909934     0.2634929545749617    -0.1389424746122374
    0.4806144283530178    -0.3492351163480539      0.215649292999451
   -0.8860139067463283     0.3456069312821603    0.08135067285549484
    0.4715591064482528      0.291211528731062    0.01926232943985284
   0.08820476120083623    -0.3695971067217673     0.1098295839421095
   -0.3637038387213538      0.132491292690313    -0.5370031645552559
   -0.4423277539477907  -0.007358977348058337   -0.04359805207828993
    0.3409189458249332    0.06369608301956475     0.3564761373910105
   -0.1302210066023029   -0.06743584530845763   -0.04476480217674354
   -0.3668323694413925   0.004833319053992991     0.2473636640972349
   -0.1132307247366469        0.3863099718425     0.6712076765116068
   -0.3208142902401406    -0.0104432903363799   0.008007060605174305
   0.02867382317726827    -0.1704971218416104    -0.1322207694651013
    0.5705234009249619   -0.06366591357080353     0.5180374092244932
  -0.07632898941733259    0.09541240867767242   -0.01507846925903042
    -0.130837717012359     0.7930194879520828    -0.2864615046853188
    -0.247527688666217    -0.1988896472700988     0.1552632545552544
   -0.1240364713354664     0.2799585770519472    -0.1354180758034912
    0.4878217311826122     0.2137985348173266    -0.1015271728107233
    0.2360700670585754    -0.3796830405391947     0.7065956820503299
     0.374113823759485     0.2239419801625222   -0.04695528719679046
   -0.8612539546921355       0.68976677186074     0.9771118902971906
   0.08384582948859527   -0.08547019575873459    -0.1064967999830428
    0.3747486709550287    -0.7626814639531597    -0.1452688210614607
  -0.06433951539554025    0.08798240247177255    -0.1697271487627932
   -0.1994641936272433     0.2483777907316954      -0.28246452924888
  -0.04668683645467381   -0.06763850525528764    -0.5958672504493286
  -0.07422438396797064   -0.06824461745692711    0.08091700766666823
    0.1509517128541092    -0.6511691918553767    0.01977414014151638
    0.4620879979229509     0.3010972498108661     0.0215653676835381
   -0.2595645144429591    -0.6284520449959321    -0.2921403799311021
  -0.03647214658469834     -0.363984151912411    -0.4157341624754488
   0.04452773087872446     0.3209935630096579    -0.3673153325120572
   -0.3277510179111561   -0.05292960208148293      0.148669518517755
    0.1163409047795339    -0.5150345415448278 -0.0001699067370326234
   0.04889865694338854    -0.1283909061492757    0.02774823289550465
   -0.1875254870903318     0.1839528944434213     -0.314932980490619
 0.0001566422258795971    -0.1225554473195892    -0.2389334289060312
    0.1184472055893666   -0.05320778748043668    -0.3976437864517383
   -0.1527605913529871     0.2692722126502479     0.3986138702303562
    -0.420849546560684   0.003546705568980075    0.02654752240460493
    0.9721589885458261    -0.7770974586302393       -1.5768990007822
    -0.213447473028355     0.5589572479758693  -0.003041302365161247
   0.07545499438928269     0.3265341805527651      0.558277271842912
   -0.1921957782744451    0.05984780449062084     0.6071237105701411
  -0.04630157945400985     0.0765303948118824    -0.1354280339861224
    0.2153449965706471    -0.3540770691162834    0.02466444152615456
   0.04616387652632067    0.07772915853486835    0.05688262216593399
   -0.1977361821168644    0.05384442332722959     0.5432433840245079
   -0.4482548836861051     0.5340732801453872   -0.01746630702663989
   -0.3421721023361354    -0.1892212692706599     0.2041346579099915
   -0.1988671370195861   -0.04324970900392874    -0.2692801864606743
   -0.1678969473328827    -0.3139179894555105    -0.4727458920074504
  -0.04434350116273664    -0.1250666545724049    -0.3280185410999364
     0.662100911049423     0.3099500696200373    -0.4258405039715291
    -0.211336560488485   -0.01502234109482121     0.4013506557549583
   -0.4188200521326153   -0.05786497045004962    0.06410575165211609
   -0.2976504880361028     0.1683598528103008     0.7260231101793652
    0.1762794677830578     0.1299640056545654    -0.1430173320668952
    0.4027092719248998     0.2614530913293324    0.08210278529335618
    0.2936342393627546     0.1239981340125789     0.5081803369018982
   -0.1423609431289659   -0.05441538945541682   -0.07580790467610925
