# vtk DataFile Version 1.0
NBODY     0.8000000000000004                   0.02
ASCII
DATASET POLYDATA
POINTS 128 float
    -13.24628691620096      -5.68891299474327      3.505205114357136
    -8.463201088821801     0.2932854196044664     0.2579671927417216
    -9.780470807296652     0.7077469772383799     0.3765746351994162
    -7.896667973547169     0.5055553288682633    -0.5665746799601785
    -8.526017189262031    -0.5825512221849432    -0.7258313006709518
    -9.513371216723648    -0.2116427267119733    -0.8760770338879803
    -9.577697508338861    -0.5010545525103584      1.240435560630146
    -9.062142361881303    -0.3272417969661032   0.002555936907006947
    -9.102435545213542       1.33802205374014     0.7194069150476083
    -9.279931284147738    -0.4727134313034396     -0.861749561365365
    -9.347272870719005      4.510472866580501     -4.952564173566478
    -8.103587494299164     -2.806706061108158       1.01861332185364
    -9.211343422207532     0.3967928290772239     0.2269433658299206
    -9.206364346187259      1.321244007968728  -0.003711951644269974
    -9.041665906450691     0.8432294767995577     0.4408931249566291
    -9.580440999895163     0.2145391052527398    -0.4272565366024587
    -10.20895095109752     0.2880962940323695     0.9859291166025518
     -9.18801576466446    -0.5883555155400053    -0.0864134735601004
    -8.785664018102521      4.312992631257035     -1.631271031896083
     -8.95848107040862     -1.042436318793613   -0.08567051090945045
    -10.32111067038027   -0.04082020082293816       1.16740794331239
    -9.876723108630905    -0.2823700445034987    -0.9167148563835827
    -7.682729251879834    -0.5675844595301501     -1.136841628680542
    -9.533443691088689     0.3907040414730756      0.412471320702664
    -2.863701362491569      4.512671940941958      4.447917057582934
    -10.40797561793621     0.2989387668392982    -0.4785562047585859
    -9.863732094090361      3.101567129095762      4.975666465323937
    -8.228504740719366   -0.03721610286100369      1.569496312573265
    -8.239770281859576    -0.4061787246414544     0.3492492972058799
    -8.269492263577009     -4.150564989881016     -6.544012975359981
    -10.97834362191729     -1.185611208901308     -1.412250365689841
    -9.801183262295694    -0.9757223736008518    -0.2770833774470358
    -8.929357677817096    -0.1145802851982125     0.9620331142264329
    -8.822960790189208     -1.321644438365777    0.02184398622750181
    -9.285290896920101    -0.4780227282772369     0.2671805423021401
    -5.464917811371235    -0.2934093297714749     -1.254702579161723
    -9.040233154735443    -0.6991845558010501     0.2748786947624708
    -6.839384533965891      2.274342853422108      1.016921095927254
      -9.2731473487991    -0.6314681155450184      1.085551784462977
    -8.187748948591475      3.334771243564552      5.429390339364868
    -9.758009841281472    -0.8804405616793126     0.1850963210622732
    -9.038679802625641    -0.3325792755643223     0.5590612019792676
    -8.483942792591565     -1.132683754555085     -1.140413228994462
    -8.844148564774061   -0.07083786629429085     -0.526624214043848
    -10.51964523310887   -0.03749045117284285    -0.1670146302218734
    -9.330953176538197     -0.549218342057838     -0.953089070693933
    -8.317122099899864     0.2013865289304868    -0.3664541372691847
     -10.3258392811506    -0.9619081461907002     -3.654500981244027
    -9.305976236430672    -0.5551807647598611     -1.429680982979944
    -9.371627188026515    -0.1439085995046876    -0.8329301018968233
    -9.068408098572416     0.7279943804156651     0.4643931989363909
    -8.723136106345111     -1.100197193766975    -0.4944763418342677
     -12.4802795091088    -0.7245751576236524    0.03182964740286069
    -8.687142765158823      2.142359906769665      0.531585210739332
    -10.10586662250843     0.2532893015154976         1.004198422435
    -7.961358149493426    -0.7249430322796431     0.4579614634181479
    -9.654209202384248    -0.4151757967367232     0.4930936029399954
    -10.21045090682331     -1.453832001761657     -1.158765669817683
    -8.771831384383756     0.1562093528599522  -0.001210722119436136
    -9.247974272416885    0.01963276940904791     -1.746767400854753
    -10.38481343308378    -0.7232241886887968     0.7912920589786053
     -9.00567467382379    0.07977886074237027    -0.2198088210953086
     -8.81600431429176    -0.3380242479643977    -0.4709492123507923
    -10.07190631451688      1.316967670886285     0.1262556852650378
    -4.114352476499655     -5.679240624160503      3.503730152356509
     0.665460934447497     0.3007843112826247     0.2580694461408072
   -0.6517818380103363     0.7151081447288993     0.3765397194432294
     1.231940082483441     0.5131464348621791    -0.5666786585865395
    0.6025143711784776    -0.5752681172993516    -0.7259882767284577
   -0.3846804240994311    -0.2041940843861227    -0.8759993719293426
   -0.4488741560772279    -0.4935786948395896      1.240355878268155
   0.06654012308885551    -0.3198460009335765   0.002602991742840276
   0.02650481779104917        1.3455612232704     0.7195188488432177
   -0.1511592913511164    -0.4652556360725799    -0.8616436478452077
   -0.2152132977267071      4.517753608065728     -4.952478402296629
     1.025721383938341     -2.799985531288153      1.018819886190299
  -0.08262402502709601      0.404232596105962     0.2269654054997515
  -0.07746504772956062      1.328713420136332  -0.003654161192849443
   0.08714168699635241     0.8506796723812129     0.4409405222429352
   -0.4517814772386574     0.2219215707321561    -0.4271482242437877
    -1.080222965138171     0.2954988062293391     0.9857403352946683
  -0.05922833139564958    -0.5809249026927268    -0.0864102989476284
    0.3451640130934962      4.320640628653345     -1.631307188331184
    0.1703067223095887     -1.035071108143351   -0.08566843924402695
    -1.192628319149379   -0.03334663112924439      1.167051390446214
    -0.747962922203296    -0.2749780491083967    -0.9165196791815448
     1.445770284545042    -0.5603449353887288     -1.137147998779037
    -0.404916503848172     0.3981870589437626     0.4127532681588625
      6.26805421686085      4.523737960038721      4.451004849668573
    -1.279611230438694     0.3060934597484092    -0.4784310582797312
   -0.7326702434404555      3.109070038900601      4.975200695930345
    0.9003133053413541   -0.02976979352740824       1.56992060668776
     0.888819101978365     -0.398786106679389     0.3494060994400766
    0.8630567517790181      -4.14350717676361     -6.544448869455317
    -1.850197886473114     -1.177859298020915     -1.411631412377487
   -0.6725159857333323    -0.9681263694340878    -0.2770601206915427
    0.1994582402538313    -0.1070993995349572     0.9621400929909726
    0.3058130835418632     -1.314279173200081    0.02186490234417163
   -0.1565337463494862    -0.4705775017274747     0.2671832168401105
     3.659341970907504     -0.286058308680905     -1.256928395789368
   0.08848123875345053     -0.691751925771168     0.2748966779612267
     2.289223732693376      2.283086036661894      1.017516241100607
   -0.1442354334844021    -0.6240161686651655       1.08556980898213
    0.9439358955980722      3.342495275314316      5.429806483307921
   -0.6292985928310192    -0.8729242491137466     0.1850486299176939
   0.09004569744998515    -0.3251614101208353     0.5590829707267151
    0.6448076958108293     -1.125470553100487     -1.140625345907577
    0.2847462958641842   -0.06345039708782466    -0.5268619743993812
    -1.391242074415447   -0.02999401686095143    -0.1669877126589274
   -0.2021125826179085    -0.5418126868808841    -0.9530789924169556
    0.8114936918087787     0.2088398050611289    -0.3665436940183912
    -1.195932075481981    -0.9543717120153267     -3.653782716453373
   -0.1771084271973708    -0.5477711017618588     -1.429601240537748
   -0.2428459289940783    -0.1364811147010381    -0.8328782174508157
   0.06036848154514129     0.7354619878961274     0.4644405580325687
    0.4056366840269697     -1.092948910300979    -0.4945352366468921
    -3.354447066523178    -0.7165226604802321    0.03158356648591052
    0.4420915849452234      2.150059401284174     0.5317514389654098
   -0.9771295435046045     0.2606871739323717      1.004012179122091
     1.167105161743252    -0.7176329666629585     0.4581515957861615
   -0.5255393038176208    -0.4076459076200559     0.4929854876788813
    -1.081531252970984     -1.446166719778879     -1.158518817632562
    0.3568015938645007     0.1636656390692394  -0.001195348861571926
   -0.1188416747173925     0.0270194935091348     -1.746797972176389
    -1.256275529109556    -0.7155802406424687     0.7910249099907131
    0.1230142958268545    0.08718696001049528    -0.2197900928470285
    0.3127475200052052    -0.3306146729528955    -0.4709514622465635
   -0.9430997928388897      1.324161090484876     0.1262828772698719
VERTICES 128 256
1 0
1 1
1 2
1 3
1 4
1 5
1 6
1 7
1 8
1 9
1 10
1 11
1 12
1 13
1 14
1 15
1 16
1 17
1 18
1 19
1 20
1 21
1 22
1 23
1 24
1 25
1 26
1 27
1 28
1 29
1 30
1 31
1 32
1 33
1 34
1 35
1 36
1 37
1 38
1 39
1 40
1 41
1 42
1 43
1 44
1 45
1 46
1 47
1 48
1 49
1 50
1 51
1 52
1 53
1 54
1 55
1 56
1 57
1 58
1 59
1 60
1 61
1 62
1 63
1 64
1 65
1 66
1 67
1 68
1 69
1 70
1 71
1 72
1 73
1 74
1 75
1 76
1 77
1 78
1 79
1 80
1 81
1 82
1 83
1 84
1 85
1 86
1 87
1 88
1 89
1 90
1 91
1 92
1 93
1 94
1 95
1 96
1 97
1 98
1 99
1 100
1 101
1 102
1 103
1 104
1 105
1 106
1 107
1 108
1 109
1 110
1 111
1 112
1 113
1 114
1 115
1 116
1 117
1 118
1 119
1 120
1 121
1 122
1 123
1 124
1 125
1 126
1 127
POINT_DATA 128
SCALARS mass float
LOOKUP_TABLE default
              0.015625
              0.015625
              0.015625
              0.015625
              0.015625
              0.015625
              0.015625
              0.015625
              0.015625
              0.015625
              0.015625
              0.015625
              0.015625
              0.015625
              0.015625
              0.015625
              0.015625
              0.015625
              0.015625
              0.015625
              0.015625
              0.015625
              0.015625
              0.015625
              0.015625
              0.015625
              0.015625
              0.015625
              0.015625
              0.015625
              0.015625
              0.015625
              0.015625
              0.015625
              0.015625
              0.015625
              0.015625
              0.015625
              0.015625
              0.015625
              0.015625
              0.015625
              0.015625
              0.015625
              0.015625
              0.015625
              0.015625
              0.015625
              0.015625
              0.015625
              0.015625
              0.015625
              0.015625
              0.015625
              0.015625
              0.015625
              0.015625
              0.015625
              0.015625
              0.015625
              0.015625
              0.015625
              0.015625
              0.015625
              0.015625
              0.015625
              0.015625
              0.015625
              0.015625
              0.015625
              0.015625
              0.015625
              0.015625
              0.015625
              0.015625
              0.015625
              0.015625
              0.015625
              0.015625
              0.015625
              0.015625
              0.015625
              0.015625
              0.015625
              0.015625
              0.015625
              0.015625
              0.015625
              0.015625
              0.015625
              0.015625
              0.015625
              0.015625
              0.015625
              0.015625
              0.015625
              0.015625
              0.015625
              0.015625
              0.015625
              0.015625
              0.015625
              0.015625
              0.015625
              0.015625
              0.015625
              0.015625
              0.015625
              0.015625
              0.015625
              0.015625
              0.015625
              0.015625
              0.015625
              0.015625
              0.015625
              0.015625
              0.015625
              0.015625
              0.015625
              0.015625
              0.015625
              0.015625
              0.015625
              0.015625
              0.015625
              0.015625
              0.015625
VECTORS velocity float
   0.01845677524387465    -0.1620738663391656     0.1674747912541882
    0.1981332890251677   -0.01844196705681827    -0.3880110843148709
   0.09404161896348112     0.3980937255674802    -0.1531912783248476
    0.6564467810085821     -0.293344297486813     0.1692905105579783
   -0.6955058285615169     0.1177374210872228   0.003182848196601086
    0.4370337924025142      0.369478132246322    -0.4371950771325579
   0.04620359634365834     -0.467983120571368      0.324806589716292
   -0.5961962989659235     0.2586683124196518    -0.4525101186743997
   -0.4154244278196161     0.1633128206863879    0.05115475721773525
    0.6265226672693105     0.1563893246785891      0.115300530647489
   -0.1160822395384686   -0.06329749150780072   -0.06000151106902116
   -0.3233006381551521   -0.06152882627937363      0.273805625462063
   -0.1320879938276976     0.4123011235452294     0.7165792415435298
   -0.2938540746042097     0.1564011903113076   -0.06040823392406099
    0.2047684604332558    0.07937928964598562    -0.1888792003208709
    0.4676764566008637      0.144590379240298     0.4573098121097249
   -0.3361668753443063    -0.2005254608346066    -0.3861240264677159
   0.03837510033992947     0.6856700646623587    -0.4493609783979408
   -0.2262264717347656    -0.1767640190362153     0.1431712226657929
  -0.04792835646211028    0.06243463854269066    -0.1006633327072212
    0.4372453870960815     0.1316875418779167     0.1276620279156651
   0.01524833265744256    -0.4502586723409079     0.6030106714524661
    0.5122310303793786     0.1968550545113058    -0.1135268811010954
   -0.9236852869524179     0.7764639976329425      1.101991733644629
    0.1042311630423473   -0.09893859240821506    -0.1092190877176297
     0.235904880646035     -0.725509003457358    -0.2403164874405465
  -0.05064325649639308    0.08977858812899935    -0.1486918786049742
  -0.08910780185855059     0.2525841787157742    -0.1603554032137517
    0.1760127302870551    -0.1275902468121263    -0.5550419089831559
  -0.06007999929854413   -0.08524544354873115    0.06886868351777954
    0.1070506688750951    -0.7086077207841808   -0.03866366412065477
     0.372375039187009     0.1022248730422919   -0.04700124975662486
  -0.08850375313774531     -0.719970164744864   -0.06392312945212741
   0.05361446711161362    -0.6091624553892652    -0.4009015592854283
   0.02120138210854051     0.1888763056601612    -0.2736495962021095
   -0.2473265889635337    -0.0645954275879176      0.140227009069373
    0.2167594257802226    -0.7242255479043763     0.1485135724073914
    0.1102848694839212    -0.1073876499633321    0.04188435982266654
   -0.1969253565100979    0.05684586974864995    -0.1630438098112957
   0.02247618992734378    -0.1224190848713475    -0.2217254888914525
  -0.02710195399570463    -0.2558475683067474    -0.2974503287066037
  -0.07789792113218531     0.3176245545045588     0.5402747683375393
   -0.3135050951083075    -0.1470621404357543    -0.1023077522729552
     1.127739801204014    -0.7429881061992014     -1.751749420801682
   -0.3521290767971351     0.5798781394464523  -0.007382771839510346
   -0.1486304437555795    0.09631832013753042     0.3392741086693065
    0.2020299180758764     0.1993366597374813     0.5993483309558859
  -0.03505758857477603    0.05837390414358024    -0.1834017350398823
     0.224630167377349    -0.4438557689088817    -0.1915802749387686
 -0.004201731737159324     0.3181026599535552     0.1033808571043232
   -0.1277318555870624     0.1227571875393217     0.8338524825249563
   -0.3161263026048061     0.2946338369583274    -0.1276473119585793
   -0.3462531679481174    -0.2136953100825919     0.2092520832548496
   -0.1422449325905803    0.05681026858248994    -0.2572719895681841
   -0.1431115506596778    0.09311013397844554   0.005012777250060118
    0.1545229260530834    -0.2388466886619628    -0.2536180176013295
    0.5572854456512049     0.2942549134350694    -0.2168456557421429
    -0.247001458105017    -0.1189677587997029     0.3522259541386789
   -0.2863275854859493     0.0372611087931622     0.2122398491788762
   -0.3125887792536663     0.2491192802335757     0.5096360586279965
   0.06704666789314942    0.02870842437649313   -0.07343694527063019
    0.4984302456997503     0.4443413196024827   -0.07849027002250411
    0.5069735840836773    0.06820133647259845     0.4918354594979222
   -0.2233220468425556    0.07083326487703326   -0.09871262353277177
  0.008404923541112675    -0.1469154349261587     0.1637051043601371
     0.179572203882111  -0.008802466608392491    -0.3877501656515968
    0.0756102833219312     0.4073320589011475    -0.1532579122070347
    0.6376458364971658    -0.2834491992577623     0.1689884635968762
   -0.7142553791766016     0.1268509438171316   0.002817333083533692
    0.4185787162238059     0.3789247479373017    -0.4369931388585117
   0.02815075513059532    -0.4583966882056815     0.3245894522974264
   -0.6146610706219483     0.2680270555970414    -0.4524018327787634
   -0.4331887588442797      0.173007393791064    0.05142997745554574
    0.6083432568566902     0.1659765336524707     0.1156531233675495
    -0.125880927787151    -0.0542521194624322   -0.05976275103260613
   -0.3400707720004034   -0.05384242606606846     0.2743384246258925
   -0.1504001824857949      0.421800458422131     0.7166312715255502
   -0.3117363254073604     0.1659168288387209   -0.06026053149467438
    0.1866037942545169    0.08887904356170021    -0.1887563946608828
    0.4491792299608498     0.1539194438231352     0.4575510980619097
   -0.3545670819396057     -0.191148263801636    -0.3866206340305662
   0.02012246570630515     0.6951302837622724    -0.4493453478936269
   -0.2392325612022982    -0.1668083884538169     0.1431004065345635
  -0.06612161263983525     0.0717118691876424     -0.100661955021433
    0.4183695236679052     0.1412339957064178     0.1267846608713702
  -0.00306385001268851    -0.4408747284482147     0.6034935981077129
    0.4931779012457029     0.2058075989576646    -0.1143937896325753
   -0.9426966811978201     0.7860596861571516      1.102862585959242
   0.09357814810364053   -0.08007996517368937    -0.1012311699999253
    0.2166128353443307    -0.7166788707656727    -0.2399675732850386
  -0.06306026671239483    0.09941857038463715    -0.1499082176691565
    -0.107230130353837     0.2620947773405571    -0.1592748553606216
    0.1572384235094559    -0.1182626158601589    -0.5546666471383456
  -0.06862510667842238   -0.07674892869338441    0.06776238050415109
   0.08731674248758056    -0.6982197499216587   -0.03708818055908066
    0.3539090700329718     0.1120706545934483   -0.04693685326421132
   -0.1066378737075762    -0.7104100260779553   -0.06365359346047875
   0.03543384349746669     -0.599922093504732    -0.4008629054734909
   0.00292467435326484     0.1983658516783159    -0.2736515028735103
   -0.2769193550299588    -0.0553684539298912     0.1346573160030816
    0.1983955753681515    -0.7147711654043113     0.1485588024985017
   0.09157626503094717   -0.09455191016680894    0.04343268067217022
   -0.2148081002011777    0.06635609396852964    -0.1630206341145147
   0.01165751517656466    -0.1122109762126154    -0.2206485878165047
  -0.04549487457405064    -0.2461579774392996    -0.2975691892243131
  -0.09624398411820649      0.327049901046981     0.5403381109783465
   -0.3317176869141542    -0.1381644378062801    -0.1028457449556499
      1.10999173803879     -0.733617739433824      -1.75257741468612
   -0.3714227175060246     0.5894499575877279  -0.007306992596612476
   -0.1667300153752198     0.1056031838825165     0.3391764784506578
    0.1833306484102741     0.2088683344835489      0.599140845028457
  -0.05033398312350832    0.06808923344646038    -0.1815367185846835
    0.2066972022858516    -0.4344628980492802    -0.1913915370873001
  -0.02238079105082609     0.3275636735977069     0.1035304278857363
   -0.1459012050987915     0.1323222301987668     0.8340017550494466
   -0.3343429399278538     0.3036489218261437    -0.1278034291139228
   -0.3723202543530384      -0.20250165029876     0.2085158201062199
   -0.1592819248651533    0.06693466665019988    -0.2568598154162722
    -0.161502582822183     0.1024653175429416   0.004490169073738133
    0.1354431498462635    -0.2297468435943512     -0.253145383790035
    0.5388126408396475     0.3039224781997033    -0.2170813403497572
   -0.2649004375686367    -0.1088650437153567     0.3528711300950181
   -0.3049051015265536    0.04677434943038504     0.2122855801547618
   -0.3299609475171258     0.2584612565675021     0.5096037807044334
   0.04820549767639477    0.03870937069002157    -0.0741163617070187
    0.4798811256555312     0.4536557116066369    -0.0783830950839822
    0.4886453746292935     0.0775933173355909     0.4917889725425302
   -0.2414900000761323    0.07962592132280577   -0.09863418625360365
