# vtk DataFile Version 1.0
NBODY      1.200000000000001                   0.02
ASCII
DATASET POLYDATA
POINTS 128 float
    -13.23799767492408     -5.752777904292644      3.571579958819448
    -8.403682635865829     0.2739778003296589    0.09137525923069043
    -9.727398994428185     0.8493055586642496     0.3164456280342302
    -7.648088006429591     0.3799177555762793     -0.492891959872476
    -8.822872886213167    -0.5238960581686201    -0.7095747437170538
    -9.303267581422313   -0.06244789501445427    -0.9974692416992976
    -9.548661550827685    -0.6822171524888663      1.347713564256274
    -9.297594038619421    -0.2450236773573493    -0.1863569276677954
    -9.268710569177136      1.386110477612842     0.7296243713773437
     -9.06009112157996    -0.4143419044083436    -0.8157715202822813
    -9.393191203616022      4.483913680361485     -4.975173487612879
    -8.234071542618523     -2.825568613603374      1.125663037416114
    -9.261403714319551     0.5561708115229254     0.5119295840491933
    -9.323276055613354      1.366402058548369   -0.02145975478284718
    -8.979234463785248     0.8331346726067494     0.3812523159279985
    -9.380024213775215     0.2562055273011942    -0.2377415059055226
    -10.26897797492556     0.1999230749920157     0.8585943084299297
    -9.169239275709286    -0.2851028581176894    -0.2492834962971336
    -8.875705340073825      4.239265340739974     -1.572883450982299
    -8.979123057405786    -0.9983770229417614    -0.1267171125685362
    -10.13166774230787    0.02227016135204073      1.197290471536536
     -9.84521685537606    -0.4591928868627357    -0.6641450893712116
    -7.488088691391329    -0.4867286043533385     -1.174869762589383
    -9.892191668497956     0.6963554178922168      0.840295173786616
    -2.821887995640093      4.471622852055419      4.402940111179819
    -10.29950093610712   0.001132583927903079    -0.5648489696150513
    -9.882897114710763      3.136372975113015      4.914450833844891
    -8.270951552520343    0.06272249303732683      1.493540687481997
    -8.185134422462847    -0.4550692222472223     0.1212402507450823
    -8.293245643117892     -4.183803131942989     -6.515115782398776
    -10.92708489121082     -1.465331286416051     -1.422477172841232
    -9.637222561559698     -0.917815249686199    -0.2882422080543956
    -8.976054154951028    -0.4041963233170506     0.9101687639916813
    -8.808569807819577     -1.538137649152931    -0.1431436273673375
    -9.267344771729144    -0.3946809292211845     0.1445597717166689
     -5.56565388040076    -0.3190565420900369     -1.196833255047654
    -8.961879893803683    -0.9678011936458361     0.3182321835582437
    -6.797518571671957      2.227770654700421      1.032051676640301
    -9.354644963888386    -0.5954627679984191      1.005190320966483
    -8.178784163742737      3.284719060238671      5.338881256661007
    -9.752435954422493      -0.96604486061196    0.05793586085042104
     -9.07505305579198    -0.2059849746473919     0.7626276980046878
     -8.61692322523967     -1.178600746703863     -1.168096587467522
    -8.408207708047735    -0.3812925647665285     -1.204748909710582
    -10.64155407335541     0.1941846897703181     -0.171836592927513
    -9.357253095389307    -0.4728543907577367    -0.7851931113588838
    -8.255479812162513     0.2715983306032428    -0.1191909767933228
    -10.33802586513825    -0.9377378871824962     -3.723537647945128
    -9.214182946634764    -0.7244749512271982     -1.482718720811162
    -9.388243738811644   -0.05271580803375261    -0.8111442152559705
    -9.115332682946791     0.7851287180189538     0.7619476563554448
    -8.858722988787628    -0.9618994463291839    -0.5353717733487486
    -12.61292079962726    -0.8090874512227848     0.1153000555036275
     -8.74615259736697      2.154585823907911     0.4270383740073347
    -10.21376785910507     0.2787348220586724     0.9654671622217206
    -7.916113614334543    -0.8102052670493791     0.3488515684545423
    -9.411481413261358    -0.2952487792744161     0.3923405056046254
    -10.30272951756929     -1.492091656034193     -1.012327725593477
    -8.898482505846133     0.1595770721439563    0.07227492779717964
    -9.371467652065443     0.1122159711927214     -1.524530363554849
    -10.34366846616374    -0.7029779889373854     0.7551638600809428
    -8.806679258627447      0.240658101166876    -0.2356815875443354
     -8.62960632689815    -0.3048906506751235    -0.2724334710628909
    -10.15046210894775      1.331750508874514    0.08834100649578898
    -4.111014414290509      -5.73648353806195      3.568243048224294
    0.7157709108449929      0.285383961086162     0.0916050904887231
   -0.6078364167844199     0.8603696907832049     0.3163882692284018
     1.471150417610721     0.3915457368252143    -0.4931565399059838
    0.2964121899440309    -0.5129551309519844    -0.7099001823794742
   -0.1836727058244841   -0.05121056507296508    -0.9973215313171064
    -0.428754048035058    -0.6708587561610624      1.347522921554432
   -0.1780427499136095    -0.2338520362268323    -0.1862629508934888
   -0.1485580181320669      1.397567179963602     0.7298671712557331
   0.05972309583082751    -0.4030328941270755    -0.8155393016618429
   -0.2659826557583705      4.494796807948361     -4.974962597589073
    0.8869637522468742     -2.815890194289887      1.126133444651229
   -0.1417421425448485     0.5674344487820433     0.5119746362797961
   -0.2032251205330633      1.377700448760238   -0.02132987160883701
    0.1405781199524838     0.8444312130543991     0.3813659605078946
   -0.2605132776820267     0.2673417447282779    -0.2375251763068903
    -1.149402881760739     0.2110843157382607     0.8581463795797781
   -0.0495209720476751     -0.273862370430171    -0.2492661063848688
    0.2486647157986343      4.250954856074952     -1.572946989798315
    0.1406542970484886    -0.9872887964430481    -0.1267163998406745
    -1.012484470610869    0.03361286485798673      1.196507332118801
   -0.7255451719655616    -0.4480126554720428    -0.6637251050865048
     1.630930968186568    -0.4759247706413546     -1.175635386295357
    -0.773030267359082     0.7076838387645857     0.8409141354868921
     6.304564842722182      4.491191695896125       4.41001053518037
    -1.180691478126428    0.01183032673259311    -0.5645402123518531
     -0.75800586826714       3.14778218766819      4.913374685214095
    0.8488916600524117    0.07401653034317397      1.494495540023754
    0.9341352340033278    -0.4439365517868102     0.1215683714069192
    0.8350725674232626     -4.173405933277903     -6.516095118295508
    -1.808666205160609     -1.453267161598639     -1.421088042716364
   -0.5176869496007055    -0.9062261923584686    -0.2881853820669371
    0.1437805837149952    -0.3928634564238973     0.9104144052632078
    0.3112211146734589     -1.527080208337814    -0.1431110417273554
   -0.1476495172100347    -0.3834029536391629     0.1445535356205858
     3.544031066533463    -0.3080135934074555      -1.20176426914933
    0.1577541053014737    -0.9565616578100002     0.3182745924853272
     2.321805332060711      2.242006393010553      1.033420841042079
   -0.2345972744001203    -0.5841654627774827      1.005209646588094
    0.9475225977960138      3.296631017972879      5.339834416372615
   -0.6328311765236087    -0.9545929539110306    0.05782863290793487
   0.04459442771868425      -0.19476264779738     0.7626760679912328
    0.5028368136271094     -1.167848242392949     -1.168572737535923
    0.7118299811427965    -0.3701212188511065     -1.205348943068725
    -1.522739615184652     0.2055251672545748    -0.1717732406994651
   -0.2374210608452628    -0.4617130601583345    -0.7851943278212656
     0.863861184011651     0.2829114465755794    -0.1193745541170588
    -1.215667188950946    -0.9262619110560544     -3.721887107643368
   -0.0941764527752415    -0.7132847292998042     -1.482554275852233
   -0.2684856706638173   -0.04146187028093267    -0.8109904132542046
  0.004464698700200055     0.7964620792131207     0.7620710370804832
    0.2610329853332308    -0.9510438148534852    -0.5355083983339498
    -3.500105852590989    -0.7963048538743986       0.11464622484993
     0.374648535291525      2.166424441555583     0.4274030088477802
    -1.094146669798134     0.2898983812558643     0.9650277523623352
      1.20288682969183    -0.7992726483435396     0.3492661587892355
   -0.2919508351717993    -0.2838163700405337      0.392130749917618
    -1.182688497348872     -1.480273575195134     -1.011757591915382
    0.2209582808562821     0.1708712222510879    0.07231578735983415
   -0.2509652620216041     0.1233592747885293     -1.524560761551369
    -1.224460342026552    -0.6912515198034068     0.7545643528851381
    0.3128328441455691     0.2518312081757655    -0.2356120383928692
    0.4900486614522021    -0.2937102533453033    -0.2724565226373049
    -1.030660753049992      1.342411049253083    0.08841093365502226
VERTICES 128 256
1 0
1 1
1 2
1 3
1 4
1 5
1 6
1 7
1 8
1 9
1 10
1 11
1 12
1 13
1 14
1 15
1 16
1 17
1 18
1 19
1 20
1 21
1 22
1 23
1 24
1 25
1 26
1 27
1 28
1 29
1 30
1 31
1 32
1 33
1 34
1 35
1 36
1 37
1 38
1 39
1 40
1 41
1 42
1 43
1 44
1 45
1 46
1 47
1 48
1 49
1 50
1 51
1 52
1 53
1 54
1 55
1 56
1 57
1 58
1 59
1 60
1 61
1 62
1 63
1 64
1 65
1 66
1 67
1 68
1 69
1 70
1 71
1 72
1 73
1 74
1 75
1 76
1 77
1 78
1 79
1 80
1 81
1 82
1 83
1 84
1 85
1 86
1 87
1 88
1 89
1 90
1 91
1 92
1 93
1 94
1 95
1 96
1 97
1 98
1 99
1 100
1 101
1 102
1 103
1 104
1 105
1 106
1 107
1 108
1 109
1 110
1 111
1 112
1 113
1 114
1 115
1 116
1 117
1 118
1 119
1 120
1 121
1 122
1 123
1 124
1 125
1 126
1 127
POINT_DATA 128
SCALARS mass float
LOOKUP_TABLE default
              0.015625
              0.015625
              0.015625
              0.015625
              0.015625
              0.015625
              0.015625
              0.015625
              0.015625
              0.015625
              0.015625
              0.015625
              0.015625
              0.015625
              0.015625
              0.015625
              0.015625
              0.015625
              0.015625
              0.015625
              0.015625
              0.015625
              0.015625
              0.015625
              0.015625
              0.015625
              0.015625
              0.015625
              0.015625
              0.015625
              0.015625
              0.015625
              0.015625
              0.015625
              0.015625
              0.015625
              0.015625
              0.015625
              0.015625
              0.015625
              0.015625
              0.015625
              0.015625
              0.015625
              0.015625
              0.015625
              0.015625
              0.015625
              0.015625
              0.015625
              0.015625
              0.015625
              0.015625
              0.015625
              0.015625
              0.015625
              0.015625
              0.015625
              0.015625
              0.015625
              0.015625
              0.015625
              0.015625
              0.015625
              0.015625
              0.015625
              0.015625
              0.015625
              0.015625
              0.015625
              0.015625
              0.015625
              0.015625
              0.015625
              0.015625
              0.015625
              0.015625
              0.015625
              0.015625
              0.015625
              0.015625
              0.015625
              0.015625
              0.015625
              0.015625
              0.015625
              0.015625
              0.015625
              0.015625
              0.015625
              0.015625
              0.015625
              0.015625
              0.015625
              0.015625
              0.015625
              0.015625
              0.015625
              0.015625
              0.015625
              0.015625
              0.015625
              0.015625
              0.015625
              0.015625
              0.015625
              0.015625
              0.015625
              0.015625
              0.015625
              0.015625
              0.015625
              0.015625
              0.015625
              0.015625
              0.015625
              0.015625
              0.015625
              0.015625
              0.015625
              0.015625
              0.015625
              0.015625
              0.015625
              0.015625
              0.015625
              0.015625
              0.015625
VECTORS velocity float
    0.0232097292261136    -0.1570096470531673      0.164241332396682
    0.1028695193889575   -0.08066118627024686    -0.4555629389596598
    0.1685026506149391     0.3120493622284892    -0.1434322592722341
    0.5840072405630872    -0.3338513919330001     0.1986072002204828
   -0.7945287013014535     0.1775138778038141    0.07657513362556395
    0.5561133638345794     0.3555795163011637    -0.1465578790245927
   0.09766260968580598    -0.4307336687318373     0.2063834859060396
    -0.515194057261839     0.1268956624194285    -0.5163675420474784
   -0.4146713510973531    0.07239337080025143 -0.0009891935610778393
    0.4987408453906018     0.1504139527119312     0.1558462616286226
   -0.1133660567687791   -0.06981448409814024   -0.05267833150614756
   -0.3291787029710057   -0.03136110004994494     0.2605907988273155
   -0.1125249967661088     0.3894848102498713     0.7009366892993847
   -0.2901799288458939     0.0662097252852048   -0.02667035820280087
    0.1160120109255035   -0.09170956442916349    -0.1282161738665909
    0.5370583265968603    0.05553345584686229      0.491505545008583
   0.00105967403941582    -0.1866333777045941    -0.2220458027374947
 0.0002283527071232708     0.8461649682921621    -0.3395807801088597
   -0.2238208760350262    -0.1927677055384094     0.1491035600488675
  -0.05779422525633453     0.1642039689147006    -0.1078835176271591
    0.5026283317987238     0.1855542736752039    0.01018416449128514
    0.1437180153041122    -0.4296067586951918      0.659954301396496
    0.4593717361804329      0.207739125400225   -0.07572822398180937
   -0.8706178010811946      0.739763852687412      1.034124559712417
    0.1048854106583034    -0.1067209196073069    -0.1160262943343087
     0.311459530835811    -0.7587797659693697    -0.1894858456265689
  -0.04488634172849483    0.08391680138407082    -0.1578626783063233
   -0.1251126733985699     0.2463123229764251    -0.2223553972430351
   0.09206445935341095     -0.113581931965968    -0.5845547263455274
  -0.05860928299578697   -0.08071102667831724    0.07597004035529578
    0.1509060578325074    -0.6882826125854083   -0.01098179946914169
    0.4486484342805536     0.1922783023073866  -0.005148522115600908
   -0.1578041356075024    -0.7088399991737134    -0.2083289376314282
   0.02022109247253024    -0.4740203570535477    -0.4191295984119878
   0.05729178472667587     0.2380935322362545      -0.33953172699606
   -0.2572311667735184   -0.06353212215183936     0.1495988401692454
    0.1786911208626298    -0.6198201100444646    0.06544870123195216
   0.09847184576912922    -0.1263613025290631    0.03330479735489165
    -0.201317571838107     0.1244168820781068     -0.240079162813622
   0.02233698564597206    -0.1281319897137485    -0.2313333075949388
   0.05960270444856027    -0.1678696269297552    -0.3442789126705134
  -0.09723800340967777      0.300044032338399     0.4873106075205693
   -0.3525050322773527   -0.07755258598758533   -0.03332809893504719
     1.047503272840323    -0.7933557684801977     -1.640590449595275
   -0.2538696624049783     0.5718875104690023   -0.01497774764040912
  0.005438043616530843     0.2574112151063767     0.4719164400211164
   0.09356242221421091     0.1486613693987625     0.6452656725482641
  -0.02542438042444774    0.06259104297776553    -0.1608313204214392
    0.2362542528415306    -0.4003997767103153   -0.07280865563030574
  -0.02102714005573086     0.1529964955483367   -0.00120752513166184
   -0.1236737940388851     0.1181448429828616      0.666344717039969
   -0.3627778113914407     0.4036355588204845   -0.07454458549053067
   -0.3159086556466437    -0.2085897648768237      0.207971674222014
   -0.1534463519877521   0.001467823848306275    -0.2652928245139565
   -0.3415002347930154    -0.0153618973286733    -0.2220781962291023
   0.06953685077648863    -0.1853588797483172    -0.2935175301040879
    0.6598743263224854     0.3023326819469083    -0.2965789940885201
    -0.212551129013648   -0.07057726704798752       0.37988877253853
   -0.3370208846972763   -0.01897479609208456     0.1445152930532058
   -0.3011330192600295     0.2100205133527503     0.6089483021114559
    0.1417564512886389    0.07448685115750295    -0.1083822185603691
    0.4816953834503648     0.3521490618210416   0.008889420668047959
    0.4135094649121531    0.09038385842255681     0.5023781907530108
   -0.1659430328330015  0.0004799049770786751     -0.089266658606641
  0.008277271402744363    -0.1389199762878539     0.1586103919466082
   0.07487583307901446   -0.07075686546016938    -0.4551744169199537
    0.1408443431961806     0.3213341017567735    -0.1434991746494828
    0.5554208455470705    -0.3235433310133564     0.1980917422468955
   -0.8225054674747128     0.1867335942414806    0.07610590632431591
    0.5286907239578337     0.3651140248468427    -0.1463440348010774
   0.07070838293627649    -0.4208919926524383     0.2060302827779893
   -0.5428882928595211     0.1365468254935799    -0.5161892299658628
   -0.4412908590787026    0.08228618064373981 -0.0006100986960615507
    0.4716205491875254     0.1600240068828429     0.1561132883485987
   -0.1280690502908908   -0.06085740348616333   -0.05227892691447374
   -0.3541725276349341   -0.02427485972569378     0.2613893557299882
   -0.1399616191154446     0.3991007632235121     0.7009977137081339
   -0.3169878086478499     0.0758335795788692   -0.02645687863002007
   0.08875757919821423   -0.08196376839176432    -0.1280140602983596
    0.5093588643740169    0.06498183283475167       0.49180112003402
  -0.02676794548216615    -0.1772305921557837    -0.2228486608346621
  -0.02729606676950617     0.8556459730451437    -0.3395702873667792
   -0.2434511517626416    -0.1825132680969926     0.1490424839935989
  -0.08511589265980395      0.173547482096894    -0.1078916285854938
    0.4745606063243941     0.1953995086408709   0.008886939429982083
    0.1161090347667594    -0.4200443181557331     0.6605958763644483
    0.4304998136298591     0.2166075627839611   -0.07720936163157149
   -0.8988962701055517     0.7493575645449163      1.034925817283647
   0.08872737152088148   -0.08278371292352044    -0.1038704178893801
    0.2825016496250234    -0.7498536793981589    -0.1889173221876669
  -0.06365874030924439    0.09382348686705827     -0.159736757993738
   -0.1523217329679115     0.2560567303480251    -0.2207624474201969
   0.06374955758268859    -0.1042133691007478    -0.5840862483099131
  -0.07143353372634006   -0.07252502948245186    0.07433550952323924
    0.1215565889224419    -0.6770483944473185  -0.008682855075337823
    0.4209957209048197     0.2024010480074554  -0.005043275296009363
   -0.1850385083076623    -0.6991743607416615    -0.2078978092097637
  -0.00695137851123102    -0.4648081854878343    -0.4191176374178586
   0.02977348290626681     0.2477856358507052     -0.339586145968552
   -0.3011857607915538   -0.05430565389960918     0.1415543953165081
     0.151206923916891    -0.6102448659151791    0.06552863050741775
   0.07026624451477213    -0.1116367524420263    0.03567162772677582
   -0.2282200376808266     0.1341520638902886    -0.2400996802690263
  0.005971309954895096    -0.1173707693739451    -0.2296939864421304
   0.03200405063664508    -0.1578586572047739    -0.3444652113397947
   -0.1247332683907594     0.3096809238336264     0.4873812164807142
   -0.3796794547709434   -0.06875819894171981   -0.03412123940966434
     1.020540855681576    -0.7838207224383814     -1.641640023900468
   -0.2830421379384824      0.581509766551799   -0.01485516812369687
  -0.02190017836268535      0.266836522704094     0.4719709458288617
   0.06543077225238876     0.1584511073102856     0.6449988646923315
  -0.04826232874935685    0.07258622830486551    -0.1579791153377185
    0.2094426092024148    -0.3908851353573411   -0.07257976622823811
  -0.04846071065763958     0.1626356296163366 -0.0009174303453388772
   -0.1508553898736548     0.1279227759476348     0.6665885083709939
   -0.3901065403831802     0.4126655952968258   -0.07477754215371277
   -0.3556932629436511    -0.1960248674525814      0.206603160631122
   -0.1790038467027127    0.01205966145288455    -0.2647089704078356
   -0.3691883689112881  -0.005887439363273215    -0.2227997252646911
   0.04081089161155232    -0.1763593522597529    -0.2928695653507432
    0.6321974328893695     0.3121718947349744    -0.2968536797467225
   -0.2395128423451832   -0.05987099646381496     0.3808792902779176
   -0.3648612236174474  -0.009294224237794736     0.1445986024268115
   -0.3273855076970893     0.2194634785671201     0.6089949781937746
    0.1134755444006343    0.08491768210259022    -0.1093763334279016
    0.4538890656099939     0.3616720874006004   0.009030151794847084
    0.3858669766275039    0.09987296072310833     0.5023342179294218
   -0.1932684902842993   0.008999719264488219   -0.08912569082606307
