# vtk DataFile Version 1.0
NBODY      1.800000000000001                   0.02
ASCII
DATASET POLYDATA
POINTS 128 float
    -13.22204820274754     -5.844811647176699      3.668727605604479
    -8.332129137191771     0.2201915311571602    -0.1921506664902314
    -9.601878779145263      1.011348998333413     0.2323857892313463
    -7.325868320705785     0.1681956759346284    -0.3659409517747861
    -9.331371215321898    -0.3501371150873017    -0.6563757593396197
    -8.990163825879423     0.1188673685069432     -1.011855658636137
    -9.478397322223149      -0.91854067576909      1.429541874713894
     -9.51935022806132    -0.1728163013708441    -0.5064166257728193
    -9.514077817185672      1.390499803146178      0.710208622780093
    -8.804302957913071    -0.3630707479872237    -0.6367559400994578
    -9.460009035520777      4.439215252232555     -5.003593530919298
    -8.433548894068592     -2.831493086151556      1.275809728106151
    -9.313086988733311      0.784263865945165     0.9202370467456198
    -9.495151595555209      1.368471552895399   -0.02243522324696623
    -8.931951788717894     0.7391340794675331     0.3026250580466195
    -9.029127148691272       0.22998692896935     0.0721424679066099
    -10.29559181090593     0.1921974821159411     0.7966307614782595
    -9.213600353115133     0.1966986815632956    -0.4284813487168985
    -9.008847255862577      4.116385527935238     -1.480731510446188
    -9.026977345143177    -0.8533970721403252    -0.2032147635111736
    -9.819895857418651      0.142010463468978      1.155269998432542
     -9.70281916831247    -0.6999689431661956    -0.2487327985248153
     -7.23264109140545    -0.3588183259478909     -1.206710054774847
    -10.39440138345956      1.114276740270411      1.435845081646512
    -2.758623941801111      4.404133253966648      4.330305745480871
    -10.06858522710498    -0.4595643685134796     -0.659463450168283
    -9.907307813127691      3.184061816840537       4.81568876766818
    -8.362579816665496     0.2070604394907018      1.333055479398321
    -8.173161951397189    -0.5076705912894774    -0.2343260192989483
    -8.327759134117109     -4.230235833276548     -6.466448241361617
    -10.81966038946663     -1.867492156109426     -1.416999255136114
     -9.34577858043882    -0.7596636566755965    -0.2796603009968834
    -9.099216497993769     -0.798462992388161     0.7475490886705344
    -8.805455993270959     -1.778462961755943     -0.393245634591403
    -9.222838714421485    -0.2206674890792191   -0.07222711614939491
    -5.725400548011291    -0.3565602688703434     -1.102999610229222
    -8.865905013965801     -1.298412557000054     0.3287930705226339
    -6.743551457029734      2.143836547179208      1.048222880905254
    -9.454632638374317    -0.4990765582570775     0.8287496976392777
    -8.165452568205458      3.205338321846512      5.195809486833017
    -9.675425842839983     -1.021194767178158    -0.1716083095192936
     -9.14129669853004   -0.04427289197011079      1.017190501268936
    -8.842529853784676      -1.19355971299069      -1.16160220009092
    -7.797262224272894    -0.8546060711793361     -2.160498506099847
    -10.75905605732747     0.5275312580570056      -0.17589891510198
    -9.310136282663583    -0.2925654814093983    -0.4691265829403851
    -8.303921679458504     0.3204451299303025     0.2599552455391189
    -10.34915143344806     -0.898583110224652     -3.810669375306735
    -9.066010246526369    -0.9487266356891321       -1.4838764309014
    -9.355964934223548   0.001813650360432045    -0.7881994924760792
    -9.206161544666699     0.8237939988446481      1.107460995543254
    -9.097618262098685    -0.6671927970436802     -0.554716241076092
    -12.79039985384814     -0.931985030754503     0.2393836064802522
    -8.843140830122888      2.131208084367223     0.2657979442256951
    -10.31718683833766     0.1492810071259296     0.7426407382163039
    -7.907269954889488    -0.8990166201763822     0.1574143836867351
    -8.998212232352198    -0.1132607092670968     0.1592827682420236
    -10.41400586039666     -1.515188343765603    -0.7755829897609111
    -9.117325220953585     0.1304735557145826     0.1207909269308979
    -9.535510168469674     0.2159284800434131     -1.108529693238204
    -10.22715396924749    -0.6388522433882279     0.6755979205597687
    -8.535945038349414     0.4077313711920281     -0.198595714532954
     -8.41842414948629    -0.2402162792393684    0.03101007626701627
     -10.2238819237378      1.304537912797944    0.04050732221902352
    -4.106107699459899     -5.816409559912837      3.661207606205207
    0.7664822830009936     0.2376724028216288    -0.1917496811836801
     -0.50290564927624      1.027975560785163     0.2322827159908197
     1.771821320120099     0.1861754998014591    -0.3666121137292145
   -0.2327847616642386    -0.3332488458962613    -0.6566875563581577
    0.1090258302457466     0.1358825843716429     -1.011572457197934
   -0.3785104889865894    -0.9011555508133751      1.429061807383532
   -0.4205549557627722    -0.1557789939997455    -0.5061406593496601
   -0.4137632305150779      1.407947967060613     0.7107116462935196
    0.2951655443643343    -0.3462376715446088    -0.6366527077786437
   -0.3437603456947392      4.455420625390616     -5.003061407985559
     0.668947207006062     -2.817790675328714      1.276870381293621
   -0.2138550383741294     0.8013327995896478     0.9202877375760377
   -0.3950810016928878      1.385561429153179   -0.02216033950623439
    0.1675377251832947     0.7563780369102239     0.3028808296471736
   0.06978653724899969     0.2468089262075646    0.07259308815708959
     -1.19674218695685     0.2090324625645027      0.795630785979897
   -0.1143279971693107     0.2137131759114843    -0.4284497863850276
    0.1008202575504882      4.134325071109431     -1.480816363216805
   0.07243449727084256    -0.8366701339995621    -0.2032119660296286
   -0.7215751843589056     0.1593794917374045      1.153534768722352
    -0.603751606025572     -0.683005864294711    -0.2478853306298121
     1.864697856712515    -0.3427207479891851     -1.208693560001422
    -1.296208948049153      1.131347548122864      1.436841201660476
     6.355677902616577      4.440352785185036      4.346545775470034
   -0.9713477968872972    -0.4434087369553322     -0.658749071112144
   -0.7964972068242766      3.201536119983098      4.813187161849211
    0.7369786651998238       0.22431330281162       1.33517385191069
    0.9249258389036622    -0.4908923253483347    -0.2337424238968293
    0.7909984016394087     -4.215059100321084     -6.468630818355008
    -1.722936707071216     -1.848278658466369     -1.413948062637783
   -0.2468734955006659    -0.7419097024673893    -0.2795456163309451
 0.0002731839522032379    -0.7812841562864639     0.7480770249534925
    0.2941494752320404     -1.761907413869879     -0.393233334837532
   -0.1237157891275359    -0.2034526404108936   -0.07225401276341453
     3.351769353371671    -0.3399985951730308     -1.113737899520632
    0.2332944319624586     -1.281397663338891     0.3288908367791653
     2.354669502697573      2.167734462133198      1.051377693345942
   -0.3546574390786145    -0.4818376667916792     0.8287284591111762
    0.9485763747299439      3.223953162961529       5.19799940486155
   -0.5763816588252644     -1.003568388768157    -0.1718589277094975
  -0.04211167527533875   -0.02719679666145356      1.017314999512487
       0.2570488976767     -1.177564260161383     -1.162657644455312
     1.302653889695534    -0.8377256911618274     -2.161953068916483
    -1.662105068662646     0.5446172140700494    -0.1757246638095796
     -0.21067132035995    -0.2757515345007251    -0.4691370887086622
    0.7943062800901174     0.3377193311528424     0.2596820424485857
    -1.243771496360183    -0.8809918894304067     -3.806860870045337
   0.03405258607296439    -0.9317884193920699     -1.483579780572977
   -0.2566398032689082     0.0188955069530011    -0.7878814890520511
   -0.1065744293472752     0.8411036725771548      1.107802497882444
  0.001770267846822814    -0.6509036983541446    -0.5550010300642145
    -3.707626387496139    -0.9109615690674332     0.2375365448683064
    0.2586095887326013      2.149597622186913     0.2665742056065712
    -1.218342072052824     0.1661362049600399      0.741670189933888
     1.190277342911152    -0.8827457555615819     0.1582608906915003
     0.100717589078887   -0.09586987324883543     0.1588593361075499
    -1.314129832812051     -1.496642748149489    -0.7742727652371667
  -0.01862241105231661     0.1476676262745464     0.1208451808092973
   -0.4346980051895576     0.2327630009721599     -1.108441888245411
    -1.129023039891482    -0.6206892194295075     0.6742766142641347
     0.562852572237259     0.4247191387191567    -0.1984259857042562
    0.6805598694646505    -0.2233129607110686    0.03097190335648609
    -1.124486055060987      1.320173555434185    0.04069141889545477
VERTICES 128 256
1 0
1 1
1 2
1 3
1 4
1 5
1 6
1 7
1 8
1 9
1 10
1 11
1 12
1 13
1 14
1 15
1 16
1 17
1 18
1 19
1 20
1 21
1 22
1 23
1 24
1 25
1 26
1 27
1 28
1 29
1 30
1 31
1 32
1 33
1 34
1 35
1 36
1 37
1 38
1 39
1 40
1 41
1 42
1 43
1 44
1 45
1 46
1 47
1 48
1 49
1 50
1 51
1 52
1 53
1 54
1 55
1 56
1 57
1 58
1 59
1 60
1 61
1 62
1 63
1 64
1 65
1 66
1 67
1 68
1 69
1 70
1 71
1 72
1 73
1 74
1 75
1 76
1 77
1 78
1 79
1 80
1 81
1 82
1 83
1 84
1 85
1 86
1 87
1 88
1 89
1 90
1 91
1 92
1 93
1 94
1 95
1 96
1 97
1 98
1 99
1 100
1 101
1 102
1 103
1 104
1 105
1 106
1 107
1 108
1 109
1 110
1 111
1 112
1 113
1 114
1 115
1 116
1 117
1 118
1 119
1 120
1 121
1 122
1 123
1 124
1 125
1 126
1 127
POINT_DATA 128
SCALARS mass float
LOOKUP_TABLE default
              0.015625
              0.015625
              0.015625
              0.015625
              0.015625
              0.015625
              0.015625
              0.015625
              0.015625
              0.015625
              0.015625
              0.015625
              0.015625
              0.015625
              0.015625
              0.015625
              0.015625
              0.015625
              0.015625
              0.015625
              0.015625
              0.015625
              0.015625
              0.015625
              0.015625
              0.015625
              0.015625
              0.015625
              0.015625
              0.015625
              0.015625
              0.015625
              0.015625
              0.015625
              0.015625
              0.015625
              0.015625
              0.015625
              0.015625
              0.015625
              0.015625
              0.015625
              0.015625
              0.015625
              0.015625
              0.015625
              0.015625
              0.015625
              0.015625
              0.015625
              0.015625
              0.015625
              0.015625
              0.015625
              0.015625
              0.015625
              0.015625
              0.015625
              0.015625
              0.015625
              0.015625
              0.015625
              0.015625
              0.015625
              0.015625
              0.015625
              0.015625
              0.015625
              0.015625
              0.015625
              0.015625
              0.015625
              0.015625
              0.015625
              0.015625
              0.015625
              0.015625
              0.015625
              0.015625
              0.015625
              0.015625
              0.015625
              0.015625
              0.015625
              0.015625
              0.015625
              0.015625
              0.015625
              0.015625
              0.015625
              0.015625
              0.015625
              0.015625
              0.015625
              0.015625
              0.015625
              0.015625
              0.015625
              0.015625
              0.015625
              0.015625
              0.015625
              0.015625
              0.015625
              0.015625
              0.015625
              0.015625
              0.015625
              0.015625
              0.015625
              0.015625
              0.015625
              0.015625
              0.015625
              0.015625
              0.015625
              0.015625
              0.015625
              0.015625
              0.015625
              0.015625
              0.015625
              0.015625
              0.015625
              0.015625
              0.015625
              0.015625
              0.015625
VECTORS velocity float
   0.03014973595866696    -0.1495466765352937     0.1594322482311742
   0.06314397782463316   -0.09570512630592957    -0.4389086484552398
    0.2482424696681483     0.2311110931648166    -0.1394358188697861
    0.4894095055295101    -0.3692168246036949     0.2213284981677692
   -0.8663586390814579     0.3887656558324237     0.2092433152555501
    0.4772945092475078     0.2484039459381418    0.08641263904760429
    0.1328102117104852    -0.3562543832386103    0.07115566273414541
    -0.222069183294615    0.08008329593702938    -0.5433428758208771
   -0.3990264738629266   -0.06083986436399397   -0.06429084676738099
    0.3118716171752967    0.06001513329099679     0.4043437495961902
   -0.1092031207568153   -0.07948098221568835   -0.04168742905591485
    -0.335474634064258    0.01289741705096069     0.2388128993054253
  -0.05024741671285829     0.3679913450440709     0.6779536818925047
   -0.2820049321838498   -0.06537976917372013    0.02684270335806185
   0.04757817860605514    -0.2263640325455728    -0.1447409519920504
    0.5965368541965819    -0.2145514661452841     0.5772533721926334
   -0.3847677499296036    0.04094621954515281    -0.2585200361762438
  -0.09314041252836472     0.7200948255272471     -0.264026417111054
    -0.219754750726894    -0.2179111141305557     0.1584830013714345
   -0.1204803643766682     0.3319792593608391    -0.1560529681422421
    0.5390807204401785     0.2016012214382221    -0.1448664509212401
    0.3466138216725174    -0.3704095404875068     0.7113643683048489
    0.3938027815411952     0.2175360342242967   -0.03016808290922031
   -0.8023548759195501     0.6613841471076543     0.9533852304688013
    0.1060815603359032    -0.1187160831883295    -0.1264931818617348
    0.4729935963892821    -0.7686766420354766    -0.1190526271878549
  -0.03618211396338004    0.07463234230715859     -0.171869409099668
   -0.1838038888282666     0.2341184582704062    -0.3167277362280326
  -0.06080831604912125   -0.05176755076533418    -0.5849713817496814
  -0.05634701463173708   -0.07381335648197052    0.08660973616213874
    0.2062325016251159    -0.6495496120665346     0.0298069661743424
    0.5169975179625459     0.3461526437975221    0.01787747272207124
   -0.2402183152516714    -0.6031826041797176    -0.3265712174381231
 -0.008226272949345491    -0.3304703008298915    -0.4106476515056453
    0.1078042344112217     0.3374322490484252    -0.3854711219069459
   -0.2769893991586471   -0.06124944609492448     0.1636068161543713
    0.1408304852444431    -0.4787335888711335   -0.02316480090026143
   0.08081666787402218    -0.1542574920194131    0.02009698463259166
   -0.1273108063083928     0.1907032912107263    -0.3497832868295362
   0.02208408495339975    -0.1367792709697319    -0.2461552096645903
    0.2006698732141185   0.005826162909576873    -0.4162732200441186
   -0.1254744979179806     0.2554558627713804     0.3526804466400233
   -0.4000935139981209    0.03098883790662356    0.05387860722213649
    0.9984156296110359    -0.7807573409959293     -1.553178347411382
   -0.1387354348145456     0.5388326723044996   0.004699533405034169
    0.1335957220215634     0.3271174733625324     0.5307934245312383
   -0.2063039916776783    0.02085852583291145     0.5639380126182268
  -0.01123153075590513    0.06792230277358952     -0.128921735089263
    0.2573597623508606    -0.3495700922335607    0.07125915570033901
    0.1152435674090635     0.0253603680984371     0.1220953670787566
   -0.1901863493482218   0.007105992352153879     0.4641795613579655
   -0.4397856446102953     0.5877704173183808    0.02539105554880211
   -0.2752066468800641    -0.2007969084088912     0.2054557968356824
   -0.1702584110728099   -0.08241972854364944     -0.271246330225941
    0.2945245061906412    -0.2906822295542245      -0.25425365000659
  -0.04152257368330369    -0.1079373414632783     -0.343414696581667
    0.6769607548896254     0.3333164834215368    -0.4934245526923262
   -0.1541194411916122  -0.005275116597322277     0.4084075831290964
   -0.3629130778688739   -0.03518234673341653   -0.03400465064420204
    -0.231075693376545     0.1265858277103288     0.7875679724553201
    0.2502891474246282     0.1415591041414565    -0.1589194423774181
    0.4297082445204243     0.1899799535374045     0.1116807515144669
    0.2934459907500794      0.127785325308518     0.4917468106831145
  -0.07501878403727284   -0.09157573695403298   -0.06968066778905807
  0.008068282289582906    -0.1271511336462006     0.1510311122267091
   0.02115066970895095   -0.08529437574009191    -0.4386173473634852
    0.2068379855370871     0.2403395612292284    -0.1395058971523514
    0.4455221013155948    -0.3583565998489295      0.220477811530186
   -0.9076748288901192     0.3990298674052359     0.2097793741860202
    0.4361692199467739     0.2581475235492925    0.08658540821249021
   0.09259320939698232    -0.3459894130552851    0.07052990508729264
   -0.2640266954541542    0.09012980656697374    -0.5429128206008598
   -0.4390110416856018   -0.05079213384247175   -0.06380308412822333
    0.2708671281183577    0.06923234265739148     0.4037004091283901
   -0.1312845000805133     -0.070715983856419   -0.04099623998130784
   -0.3726608787224948    0.01922697389440861     0.2399887465003086
   -0.0913814607172634     0.3777351209016164      0.677783052321129
   -0.3222732879595852   -0.05572434084132628     0.0270941439289517
  0.006600361924367275    -0.2162782201737976    -0.1444685350244743
    0.5548589106599178    -0.2054071930811658     0.5779227148590835
   -0.4267594693044292    0.05058679252982516    -0.2595612479242626
   -0.1343692200722669     0.7298830714198675    -0.2639541758786715
   -0.2495118408982346    -0.2073506088629232     0.1584840212802258
   -0.1614530806719065     0.3414418911868142    -0.1560167680228992
    0.4971647764653644      0.211786766202876    -0.1466781702558492
    0.3050984649379108     -0.360755594364338     0.7120795454843286
      0.34984606332984        0.2263203439919   -0.03283980843164704
   -0.8444211679189521     0.6709094801040192     0.9537718817385183
   0.08139332247100187   -0.08680691177997439    -0.1078044740748134
    0.4295400570279269    -0.7593873304467657    -0.1183157358940591
  -0.06472208637182637    0.08496153048564171    -0.1747952051495495
    -0.224670599525307     0.2442576223688774    -0.3144341128408369
   -0.1036310462529814   -0.04227146803533018     -0.584629995955887
  -0.07561189180629253   -0.06607991120523232    0.08421443144545218
     0.162893607631443    -0.6368729942882968    0.03305931399329173
    0.4753304227754614     0.3565160677233045    0.01793988627198734
   -0.2812604544032022    -0.5933172685871255    -0.3260711692762951
  -0.04875808110087776    -0.3213733306432486    -0.4107451385731049
   0.06631901968267456     0.3475500245001765    -0.3854182429468158
   -0.3420480906544249   -0.05209759630004573     0.1522726088645794
   0.09976394106614139    -0.4690667185161962    -0.0230674694864726
   0.03815184858266481     -0.136677392709764    0.02373133183439878
   -0.1677947236583348     0.2007663233279126    -0.3499174739104444
 -0.002802982919473683    -0.1251639479352391    -0.2436343677928305
    0.1592586944216123     0.0164858712556119    -0.4165457300951978
   -0.1666508493624099     0.2653160066290608     0.3528280000287272
   -0.4406314196290714    0.03970416734387041    0.05273029682802448
    0.9579042451506393    -0.7713336916225302     -1.555149608031647
   -0.1829772696148702     0.5483094553272833   0.004946769730698834
     0.092395842244282     0.3365085706094766       0.53064814732285
   -0.2490918196778093    0.03090481048478153     0.5637225314329245
  -0.04535808639915491    0.07832071864857236    -0.1245137006757616
    0.2172518878553235    -0.3399576976226972    0.07144695509829455
   0.07410829610006035     0.0351579743788464     0.1223215530816295
   -0.2307690936587066    0.01726991905855786     0.4647747431269814
   -0.4807770878558286     0.5968579403894175    0.02517018943748968
   -0.3364508940207862    -0.1857126533534125     0.2027083227791579
   -0.2086441579654395   -0.07115979599013071    -0.2704646478903601
    0.2526928961795519    -0.2812871872924329    -0.2553714876467834
   -0.0848077817769681   -0.09915874030437088    -0.3426549218240982
    0.6354200556391981     0.3434204216648323     -0.493840050932158
   -0.1948774138276307   0.006514259378279248     0.4098773072116625
   -0.4043517767520428   -0.02491897227610626   -0.03427806549349979
   -0.2709518214378284     0.1360867157581533     0.7879941181590033
    0.2078378419439569     0.1525922338342272    -0.1603320995267823
    0.3880471869851221      0.199830565192272     0.1119147283815218
    0.2516865129874448     0.1373285105393099     0.4917302723171029
    -0.116199910265547   -0.08353496480884921   -0.06943982208455195
