# vtk DataFile Version 1.0
NBODY                    0.2                   0.02
ASCII
DATASET POLYDATA
POINTS 128 float
    -13.25510057418819     -5.589278595977428      3.403206869644849
    -8.632831049817057     0.2750346482576112     0.4628275419653555
    -9.799922008612388      0.434027106348112     0.4564002305158394
    -8.323779912567238     0.6540892390286401    -0.6502045020702748
    -8.148005555429384    -0.6408222917030408    -0.7031418182926219
    -9.681811507704206    -0.4318805846278055    -0.6056144252709961
    -9.583828747015964    -0.2143566409617274     0.9942979007448409
     -8.76570559564359    -0.4887907033348892     0.2863378377049887
    -8.858241236713049      1.199159677744517     0.6624600622134792
    -9.617135165298405     -0.553469131302918    -0.9759016536911223
    -9.276380751531084      4.545392395493595     -4.913159846042923
    -7.913016188746719     -2.755564628901546     0.8487526384844776
    -9.164856908771245    0.05089707244753858    -0.1587425277066041
    -9.029924610447969      1.180167322851991    0.04745638123441372
    -9.170854187567196     0.6734955193419648     0.4866669963414756
    -9.824272582115096     0.0884592062181862    -0.6824109429157575
    -9.963980646317475     0.2333339870026754      1.049818461728228
    -9.183848584204261    -0.9422400414621501     0.2102551190996103
    -8.648916866584671      4.411870339075913     -1.714525744147842
    -8.927997601246503     -1.031922249926794   0.004140403860964124
    -10.53837596361592     -0.106960091805872      1.056835000228823
    -9.824481062845031   -0.02327018762507796     -1.233058264291088
    -8.021190532691763    -0.6806257391869602     -1.046338068464965
    -9.216376629674055    0.05815412229256119    0.04654802879762966
    -2.925979476333188      4.568479852856911       4.51033554860425
    -10.51265533005044     0.7114207265330081    -0.3196993410286614
    -9.830694122761711      3.045082995337171      5.060657330633776
     -8.19121361304776    -0.1899159639559691      1.636395857458527
     -8.38302183720163    -0.3290880568986704     0.6598139937182891
    -8.232770384100824     -4.097328577652735     -6.582023131079562
    -11.02090191398934    -0.7527493459986292     -1.376009512747888
    -9.986900358055822    -0.9960128631389948    -0.2356128186695036
     -8.89204325231591     0.3041663085683662     0.9487652842452428
    -8.892825462016866    -0.8781338705444003     0.2197959235450076
    -9.224657001612968    -0.5677417561579294     0.3790784090100591
    -5.320171809061468    -0.2543049401044178     -1.334524001350465
    -9.184606183226474    -0.2234580383503537     0.1776614393862845
    -6.911105319717805      2.329768613401642     0.9879221871781401
    -9.165329580677227     -0.634198178462117      1.136444978737706
    -8.201288856650773      3.405574165589742      5.558044112371605
    -9.699388583501143    -0.6812793757446641     0.3523477637044155
    -9.032185905255508    -0.5225709980994668     0.1483801605163788
    -8.313478163228996     -1.014023087863652     -1.046692377781943
    -9.264575447390889     0.1793084882729402     0.2037333603337686
    -10.26204928665761    -0.3824401970725537    -0.1606999847034658
     -9.28365399779222    -0.5052662870310033     -1.022919951406803
    -8.479415775465212     0.0639065751086578    -0.7008328530415829
    -10.30019847086438    -0.9946735052473799     -3.533443793821441
    -9.436936505785864    -0.2801125690412707     -1.239637351784528
    -9.411645647446305    -0.4048760091033712    -0.8638286579776577
    -9.005743796846639      0.687367916659841  -0.008375594795606357
    -8.557802738853868     -1.229165987981806    -0.3961248108835929
    -12.25697154351022    -0.5940681064458326   -0.09408958032201985
    -8.606664686632097      2.082970486800759     0.6807017683136586
    -10.01897363483892     0.3261030540158075      1.115108886188503
    -8.100990480643507    -0.5554890233241303      0.591574496775078
    -9.943422181368048    -0.5837142399393386     0.5915176522441311
    -10.04633604457828     -1.358520840175523     -1.353225150839122
    -8.653877692406262     0.1039688019338275    -0.1271739423624807
    -9.061906704715081    -0.1417656269281832      -2.01125521347734
    -10.38780798211577    -0.7176700580593874     0.8165600192072462
    -9.244391443579456    -0.1419905571125679     -0.153785137208203
    -9.154733621569333    -0.3627730072860196    -0.7345505093600763
    -9.913472932595507      1.239879427719458     0.1867216590400231
    -4.119449339036737     -5.587313754920631      3.403121342421545
    0.5026354102208062     0.2768722520482564     0.4628333680568451
   -0.6644559287404014     0.4358582421592256     0.4563976683520347
    0.8116862642453064     0.6559312650956491    -0.6502092500367895
    0.9874483515243141    -0.6389978648057808    -0.7031519775016689
   -0.5463453624946213    -0.4300444511739506    -0.6056106483884987
   -0.4483561181083188    -0.2125205842436275     0.9942939010316084
    0.3697607340911764    -0.4869589683662673     0.2863412282989941
    0.2772380795872396      1.201001144219621     0.6624668953555758
   -0.4816638631221811    -0.5516332652422987    -0.9758952196398152
   -0.1407200717615557      4.547218570845645     -4.913155515018427
     1.222483012317901     -2.753773344935843     0.8487643970680971
  -0.02938956494643083     0.0527309819944804    -0.1587414936995792
    0.1055528791743112      1.182004733518181    0.04745972405932738
  -0.03538128512896217     0.6753304531651272     0.4866694247355176
   -0.6888086769886753    0.09029069743042828    -0.6824035358019728
   -0.8285108661839071     0.2351670779638352      1.049808994705387
  -0.04837472421789688    -0.9404060324997859     0.2102551857583043
    0.4866743349924093      4.413718743028583     -1.714528563720424
     0.207474410196242     -1.030091757363467   0.004140729921187745
    -1.402924339666907    -0.1051229875062517      1.056813642987288
   -0.6890086069676676   -0.02143910594978924      -1.23304682131994
     1.114268794671871    -0.6788021642819878     -1.046353003611422
  -0.08090921559740673    0.05998836119371942    0.04654927842136349
     6.209666073018058      4.570521002073694      4.510511503276605
    -1.377206892040558     0.7132361141422137     -0.319692979276518
   -0.6950891003232523      3.046921179340287      5.060631171861425
    0.9442605120380532    -0.1880815706116912      1.636420506662159
    0.7524412653169269    -0.3272553239229796     0.6598236528118664
    0.9029185976033312     -4.095516005606701     -6.582048659466717
    -1.885469972629377     -0.750900642632629     -1.375973706015951
   -0.8514364148364353    -0.9941684171926721    -0.2356116620511552
     0.243430976610104     0.3060039636277569     0.9487716241095396
    0.2426444640999116    -0.8763021308348572     0.2197974394849918
  -0.08918662185398032    -0.5659071150233106     0.3790789289885829
     3.815032036345289    -0.2524748012959928     -1.334656850086801
  -0.04913860307220818     -0.221623610564762     0.1776624840239913
     2.224358223593105      2.331677756209207     0.9879557759654188
  -0.02985026398547613    -0.6323629688807489      1.136446612139786
    0.9343521433150694      3.407425067422216      5.558067809713945
     -0.56392067659642    -0.6794410168112912     0.3523449304506142
    0.1032824815752022    -0.5207378248851648     0.1483809115941096
    0.8219892372616552     -1.012201558540392     -1.046704771783088
   -0.1291070352954069     0.1811427778970949     0.2037346108941489
    -1.126595455313744    -0.3806008555051794    -0.1606988198049763
   -0.1481797486020859    -0.5034329711520307     -1.022918241983604
    0.6560486310333102    0.06574123773169659    -0.7008385146686688
    -1.164663381503102    -0.9928330358179889     -3.533403085959315
   -0.3014617158336652    -0.2782795927175985     -1.239632392137685
   -0.2761738564229013     -0.403041840902471    -0.8638256690069239
    0.1297271237068264     0.6892040221518749  -0.008373516259399564
    0.5776679474474414      -1.22734330719358    -0.3961280208116443
    -3.121660389514691    -0.5922028575770616   -0.09410051726004277
    0.5288327215692045      2.084820687171412     0.6807118249452506
   -0.8835020412653899     0.3279352556292782      1.115098565707241
     1.034464980577372    -0.5536603970495846     0.5915856891727244
    -0.807957726472131    -0.5818731364495543     0.5915101518719794
   -0.9108548828300969     -1.356674808135762     -1.353211371832877
    0.4815853190979978     0.1058043818245993    -0.1271733501566811
   0.07358710312026075    -0.1399341713354685     -2.011258565309713
    -1.252349935013304    -0.7158238525793544     0.8165445886013093
   -0.1089242901061985    -0.1401564505815192    -0.1537841449825579
  -0.01926243464327448    -0.3609397432479349    -0.7345494745137092
   -0.7779990894496076      1.241701505813024     0.1867229824168765
VERTICES 128 256
1 0
1 1
1 2
1 3
1 4
1 5
1 6
1 7
1 8
1 9
1 10
1 11
1 12
1 13
1 14
1 15
1 16
1 17
1 18
1 19
1 20
1 21
1 22
1 23
1 24
1 25
1 26
1 27
1 28
1 29
1 30
1 31
1 32
1 33
1 34
1 35
1 36
1 37
1 38
1 39
1 40
1 41
1 42
1 43
1 44
1 45
1 46
1 47
1 48
1 49
1 50
1 51
1 52
1 53
1 54
1 55
1 56
1 57
1 58
1 59
1 60
1 61
1 62
1 63
1 64
1 65
1 66
1 67
1 68
1 69
1 70
1 71
1 72
1 73
1 74
1 75
1 76
1 77
1 78
1 79
1 80
1 81
1 82
1 83
1 84
1 85
1 86
1 87
1 88
1 89
1 90
1 91
1 92
1 93
1 94
1 95
1 96
1 97
1 98
1 99
1 100
1 101
1 102
1 103
1 104
1 105
1 106
1 107
1 108
1 109
1 110
1 111
1 112
1 113
1 114
1 115
1 116
1 117
1 118
1 119
1 120
1 121
1 122
1 123
1 124
1 125
1 126
1 127
POINT_DATA 128
SCALARS mass float
LOOKUP_TABLE default
              0.015625
              0.015625
              0.015625
              0.015625
              0.015625
              0.015625
              0.015625
              0.015625
              0.015625
              0.015625
              0.015625
              0.015625
              0.015625
              0.015625
              0.015625
              0.015625
              0.015625
              0.015625
              0.015625
              0.015625
              0.015625
              0.015625
              0.015625
              0.015625
              0.015625
              0.015625
              0.015625
              0.015625
              0.015625
              0.015625
              0.015625
              0.015625
              0.015625
              0.015625
              0.015625
              0.015625
              0.015625
              0.015625
              0.015625
              0.015625
              0.015625
              0.015625
              0.015625
              0.015625
              0.015625
              0.015625
              0.015625
              0.015625
              0.015625
              0.015625
              0.015625
              0.015625
              0.015625
              0.015625
              0.015625
              0.015625
              0.015625
              0.015625
              0.015625
              0.015625
              0.015625
              0.015625
              0.015625
              0.015625
              0.015625
              0.015625
              0.015625
              0.015625
              0.015625
              0.015625
              0.015625
              0.015625
              0.015625
              0.015625
              0.015625
              0.015625
              0.015625
              0.015625
              0.015625
              0.015625
              0.015625
              0.015625
              0.015625
              0.015625
              0.015625
              0.015625
              0.015625
              0.015625
              0.015625
              0.015625
              0.015625
              0.015625
              0.015625
              0.015625
              0.015625
              0.015625
              0.015625
              0.015625
              0.015625
              0.015625
              0.015625
              0.015625
              0.015625
              0.015625
              0.015625
              0.015625
              0.015625
              0.015625
              0.015625
              0.015625
              0.015625
              0.015625
              0.015625
              0.015625
              0.015625
              0.015625
              0.015625
              0.015625
              0.015625
              0.015625
              0.015625
              0.015625
              0.015625
              0.015625
              0.015625
              0.015625
              0.015625
              0.015625
VECTORS velocity float
   0.01112467130045581    -0.1698119282334206     0.1723639184102226
    0.3579819961936408    0.07558779129063646    -0.2984278252529373
  -0.02287624693896219     0.5062681302472111    -0.1138515464020963
    0.7595279431023075    -0.1998653749695053     0.1092425217874115
   -0.5778209089127054    0.08403814884763471   -0.05693184697244601
    0.1697948787985103      0.357384100176132    -0.4344650752051753
  -0.01486546201116911    -0.4842318346683758     0.4879240893444504
   -0.3437672962600711     0.2627108250575989    -0.4778419313393345
   -0.3936566037500802     0.2932191449535948     0.1341892948135953
    0.4511876744321947    0.04308641958645864     0.1546756662843716
   -0.1200766614241993   -0.05340651134238451   -0.07097903119050054
   -0.3117678092808666    -0.1075151731370291     0.2913485957853136
  0.002841706297421742      0.791025664324873     0.4773683849626166
   -0.2919906263627047     0.3139686755069516    -0.1062647606320121
     0.207204926936382     0.3675639333266188   0.003211968403568819
    0.3466337212856844     0.2716323908459214     0.3940090069330983
   -0.1655300591649613     0.1044440177659446    0.06799979028216839
  -0.06215040640897089     0.4878922455600619    -0.5048040646737222
   -0.2294084139509185    -0.1537937907277468     0.1347118745716339
  -0.04282972631780353    -0.1234489368276849    -0.2286400434436234
    0.2934281062205221     0.1025115045044431     0.2277408650791162
   -0.1629814213408133    -0.3988573391936261     0.4516423693996375
    0.6220404148813734     0.1815639804204664    -0.1957779715856368
  -0.01202630313187886     0.2366246498520057   -0.01869218247163941
    0.1034200309341214   -0.08751278398613546    -0.0992130796330349
    0.1196972296839167    -0.6534395715877972     -0.281927364071617
  -0.05917532038453122    0.09814228669109423    -0.1350864228277527
   -0.0373183802451782     0.2548722164171068   -0.06546291691877819
    0.2942072994079427    -0.1248426194929181     -0.471450767088705
  -0.06224738063713472   -0.09197131537233519    0.05817865214277249
   0.03602903752423408    -0.7319638355153957   -0.08135006369900917
    0.2521456786127608   -0.03072712481165329   -0.08505298562299667
  -0.04051518368242791    -0.6730362735040336     0.1015217618139981
    0.1974086317219653    -0.8432403327059002    -0.2410932425808779
   -0.2063608620647505    0.08718060377873846   -0.07820973960669554
   -0.2361756865470631   -0.06561214130411611     0.1263446447825687
    0.2041909500742579    -0.7816375862621286     0.1484146613619275
    0.1282325043635621   -0.07817903178038503    0.05424468335208674
   -0.1680263318672281   -0.03905038343397196  -0.006767985900066056
   0.02264251084644849    -0.1138771414788445    -0.2076516096183893
   -0.1605436607550533    -0.4029418904864445    -0.2675743253670535
   0.05562609721237267     0.2780513869958476     0.7875435587430039
   -0.2602752935808658    -0.2476962174110079    -0.2062266918565498
   0.06260779652413692   -0.03779956418917826    -0.3949814815414838
   -0.5061362556340951     0.5713066146121154   -0.01663929792702537
   0.01875094279785608    -0.1751276958053371   -0.01729057237050985
    0.3276888715687682     0.2531737334284991     0.5103758330698329
  -0.05006147382029359    0.05082968786512791    -0.2193659306406583
    0.2120085593899363    -0.4494581760198528    -0.4490510525544719
   0.08625592757373189     0.5163085597126557    0.01802631331592592
  -0.07732873981590575     0.1263149832514376     0.7517813846245018
   -0.2382865727214208     0.1418840009768904    -0.1913704634140076
   -0.3976749750491804    -0.2209912536124228     0.2102046109584805
   -0.1268513098529626      0.137887517620976     -0.239336280902204
   -0.4595868654109201   -0.06791217950942297     -0.259847938494458
    0.3130147806064995     -0.322907607010462    -0.1947814742820311
    0.4114005620211919     0.2651782192185556    -0.1121487140986712
   -0.2982066628674389    -0.1970306608083212     0.2948231839702194
   -0.1057409247098303     0.1271986935695234     0.1903950196899269
   -0.3052573596250738     0.2815033736450364     0.3802038514309116
  -0.05604577920447447   -0.04654471195375812  -0.009710996043855918
    0.3516112336330779     0.2842369586748115    -0.2027900296701138
    0.6271748487528798    0.03212069551261466     0.4030215258804881
   -0.3003389438740712     0.1838864404918986     -0.100866884959508
  0.008573973159974475    -0.1591491799040111     0.1714145537053725
    0.3533699780478352    0.08484065841923132    -0.2983626652027551
   -0.0274887113504759     0.5154461078361307    -0.1138790814908649
    0.7549078888609748    -0.1905611921688203     0.1091870680529988
   -0.5825618142250969    0.09314599936135545   -0.05704260805403356
    0.1651838458410532     0.3666179402458342    -0.4344217549395394
  -0.01940265309087054    -0.4749957462328455     0.4878782660011713
   -0.3483777088257166     0.2718985980901165    -0.4778061518390418
   -0.3981186411876041     0.3025119047775639     0.1342644650128609
    0.4466343491387128     0.0523178401642875     0.1547448129439667
   -0.1225269563808203   -0.04428299263494832   -0.07092965870738821
   -0.3160064651038603   -0.09877406082090359     0.2914796662996924
 -0.001757244387396218     0.8002368384882196     0.4773804899786251
   -0.2964741739040224     0.3232165364913291    -0.1062276217978658
    0.2026690847068481     0.3767869223610596   0.003239921782733469
    0.3419981240417991     0.2808157715234253     0.3940890388668122
   -0.1701030920772474     0.1136464245802165    0.06789419409846296
  -0.06668001769936886     0.4971044483901281    -0.5048033220980138
    -0.232633776960927    -0.1444254185312895     0.1346820550599747
  -0.04737617440702874    -0.1142764872394315    -0.2286369603932183
    0.2886600724027265     0.1117571200783564     0.2275044203799242
   -0.1675279178423956     -0.389676510648486     0.4517694313164804
     0.617344840697169     0.1906586668581867    -0.1959496553956619
   -0.0166243840321106     0.2458390502713389   -0.01867800303575853
    0.1007968021778091   -0.07599389726842094   -0.09725380140275232
    0.1148859676427046    -0.6444289816690006     -0.281854826277754
  -0.06224777862689502     0.1074008691976129    -0.1353784980784915
  -0.04184254570682139      0.264089755774696   -0.06518927019237292
    0.2895562612121856    -0.1156462862191736    -0.4713441384283691
  -0.06438338260754267    -0.0829974360971137     0.0578957959368584
   0.03104242222909581    -0.7225801083906918   -0.08095190744635326
    0.2475114947261239   -0.02140042768948219   -0.08503968154669977
   -0.0450386866166242    -0.6637850159244945      0.101591956182659
    0.1928404692322234    -0.8340563146822271    -0.2410767042465598
   -0.2109264277204267    0.09640019285033492   -0.07820452415651891
   -0.2436877839177764   -0.05644432103640377     0.1248774060938052
    0.1995949196645901    -0.7724209580011567     0.1484261696728386
    0.1235877767982783   -0.06813065351250784    0.05461940909509239
   -0.1724919344373143   -0.02982469969431263  -0.006750903723264779
   0.01996960247632289    -0.1044771675749482    -0.2073876941229393
   -0.1651368190465956    -0.3936800365636563    -0.2676057935745436
   0.05103845776012909     0.2872544703827799     0.7875531086187849
   -0.2648682166683486    -0.2386230324461183    -0.2063641982889128
   0.05801984386879403   -0.02858478413291158    -0.3949673575873441
   -0.5108933562454814     0.5805754471650217    -0.0166255472111565
   0.01422986671186529    -0.1659235782307237   -0.01727203947803707
     0.323052725105841     0.2623945098450033     0.5103134287693856
  -0.05390423413019109    0.06011293469374557    -0.2189122096683377
    0.2074965552332532    -0.4402576065841243    -0.4489964914350821
   0.08170537586317064     0.5255215394052706    0.01805974452787812
   -0.0818873961622264     0.1355504692015258     0.7518055677655009
   -0.2428471021320563     0.1509717727466017    -0.1914065235841151
   -0.4040283139473966    -0.2114227350566035     0.2100767849608544
   -0.1311150048350695     0.1472781831318233    -0.2392255289099339
   -0.4641439047269687   -0.05872250098884281     -0.259966077004251
    0.3082791789638248     -0.313758599517088    -0.1946570466858464
    0.4067713954681031     0.2744665316412975     -0.112229639785214
   -0.3026548970515416    -0.1876818268244888     0.2949773566821921
   -0.1103876508618547     0.1364284409931784     0.1904023532226578
   -0.3095654524365192     0.2906872804780639     0.3801700426501548
  -0.06074889670503575   -0.03719649477637601  -0.009882776881383157
    0.3470103359345166     0.2934495720821444    -0.2027788292678222
    0.6226170032301043    0.04132351825865239     0.4030303030171581
   -0.3048667202305506     0.1929625263092084    -0.1008517590908994
