# vtk DataFile Version 1.0
NBODY     0.4000000000000001                   0.02
ASCII
DATASET POLYDATA
POINTS 128 float
    -13.25265267483647     -5.623006762300867      3.437532444251878
    -8.565699560628909     0.2873831400010998     0.4005895364896614
    -9.800985649913498     0.5321961207697037     0.4325055996031016
    -8.174635178121502     0.6110079022804884    -0.6263862469349789
    -8.266557230036968    -0.6234144980396374    -0.7142516984408979
    -9.642115487589502    -0.3591836768040754    -0.6936106487831569
    -9.585555596168586    -0.3108494033087311      1.087125693987264
    -8.844066871151227    -0.4354731204422162     0.1885030851730606
    -8.938021051085926      1.254043569998905     0.6869586051727725
    -9.519862431255852    -0.5384445927381591    -0.9400297835578508
     -9.30027730609604      4.534412628231833     -4.927026400582662
    -7.975755443809093     -2.775681101596373     0.9065288554241598
     -9.16793186800037     0.1998555953256896   -0.05159494280747595
    -9.088569070082277      1.237859744494405    0.02736246392888496
    -9.128937636079476     0.7428506191305871     0.4840079585301167
    -9.751120452360848     0.1390249297436852    -0.6016984356402288
     -10.0092570710108     0.2664596375756688      1.066718421921628
    -9.191840418730319      -0.83781415711451     0.1083176707694248
    -8.694708948785909      4.380436487201957     -1.687335592782891
    -8.938110178436085     -1.048332417978797   -0.03633408241092028
    -10.47554709407063   -0.08639336850580963      1.099946999712135
    -9.853064376722321    -0.1055371073372331     -1.138049165641308
    -7.900812542628335    -0.6439710371840803     -1.082084431126061
    -9.217366993399986     0.1076841749948907    0.04145963071096713
    -2.905273245261978      4.550637587170121      4.490195319525115
    -10.48548415763392     0.5786646400640205    -0.3751732617694647
    -9.842274948381284      3.064466223146411      5.033233322549136
    -8.200208070480929    -0.1389100696506087      1.620429575122513
    -8.327422485794575    -0.3544741434016767      0.562148814265901
     -8.24515529805794     -4.115522026750038     -6.570065994668823
    -11.01147860690678    -0.8985568436692167      -1.39094899834064
    -9.932976791250258    -0.9980890486023954    -0.2518157169083142
    -8.901453804690004     0.1678096146162376     0.9641015862117853
     -8.85911041820634     -1.041522064554109     0.1662854379101905
    -9.261572148357242    -0.5465966563723279     0.3563742846518378
    -5.367697070624535    -0.2674042502890049     -1.308841155003016
    -9.141226465590663    -0.3817787222664437     0.2054433024337406
      -6.8860006003923      2.313244911297998     0.9984092445111438
    -9.199468837296367    -0.6395239139439393      1.130127579576036
    -8.196764697547751      3.382542554381144      5.516095903615616
    -9.727922633034368    -0.7577161026905967      0.298272536444216
    -9.023194499620681    -0.4630683332866526     0.3057604081909737
    -8.366791057206591      -1.06026345357247     -1.084847584449313
     -9.24667150362089     0.1612074903583599     0.1128555269972656
    -10.35826643238699    -0.2679464754656642    -0.1635947879158576
     -9.28532833042726    -0.5345336735717779     -1.019010282031536
    -8.417212178335632     0.1131164027512211    -0.5955994219257729
     -10.3097493225724    -0.9842619559346955     -3.576206104980444
    -9.394138810878671    -0.3716786893916873     -1.320798068337204
    -9.393642426336722    -0.3053127549731199    -0.8596081716059226
    -9.022528912429951     0.7077791072144077      0.143584954672204
    -8.607715820417882     -1.196323752811697    -0.4329810527501184
    -12.33487078814459    -0.6380546031422439   -0.05205914572341747
    -8.632474058377317       2.10815808743125     0.6322250087542102
    -10.09398207781022     0.2962867125899785      1.053069429407482
    -8.043686748996446    -0.6176035606891674       0.55094114329446
    -9.856641280213664    -0.5294116845226299     0.5657712445959884
     -10.1044545704867     -1.395520200869756     -1.292319986860611
     -8.68060648342488     0.1270914616254573    -0.0876128675201865
    -9.123323863366009   -0.08600004376001293     -1.931632916820109
    -10.39507658066837    -0.7245847796588265     0.8124541980579644
    -9.171815013046405   -0.08020423026960732    -0.1878330008504786
    -9.033967200297722    -0.3562447875414549    -0.6526344807280324
    -9.971361416475581      1.273148355582291     0.1664893935910249
    -4.117739249349256     -5.618773031509449      3.437171965048601
    0.5684279929946954     0.2910822945382848     0.4006143632383302
   -0.6668570424180714     0.5358658880905328     0.4324954677557857
    0.9594876169184633     0.6147271770097716    -0.6264081283570939
    0.8675245776714298    -0.6197700167913867    -0.7142930990697394
   -0.5079860993410116    -0.3554926080339234    -0.6935937290789872
   -0.4513976052935726    -0.3071564856612981      1.087107863064998
    0.2900621153720188    -0.4317986511596277     0.1885160577566599
    0.1961656177427626      1.257756913755935     0.6869869305535176
   -0.3857112375532272    -0.5347542850230065    -0.9400043192993546
   -0.1653271362549973      4.538061896102383     -4.927007248849621
     1.158516931131381     -2.772175515868418     0.9065787715993721
  -0.03379817841198581     0.2035387277886318     -0.051590128557976
   0.04560905129929931      1.241556059723816    0.02737656886258059
   0.00522024761070138     0.7465383571108825      0.484018863128626
   -0.6170003157182945     0.1426972587373518     -0.601668748105089
   -0.8751151991108254     0.2701400566269354      1.066677911247138
   -0.0576815606191211    -0.8341307731263581     0.1083180177129194
    0.4399457106499723      4.384178139389595     -1.687346457982102
    0.1960434031281337     -1.044664189803935   -0.03633310250163208
    -1.341476042272503   -0.08269755424111137      1.099857552054557
   -0.7189122200479729    -0.1018651399385292     -1.138000959469328
      1.23328190135186    -0.6403326245392756     -1.082151434967034
  -0.08323303597915763      0.111368401743483     0.0414651500844798
     6.229609696361563      4.555199230968595      4.490941207229786
    -1.351431822736259     0.5822732152777177     -0.375145156281231
   -0.7075623924028491      3.068167325434741      5.033121885442788
     0.933953726597312    -0.1352242305186705      1.620533465952128
    0.8066897339122031    -0.3507972691792451     0.5621889934500223
    0.8899142584895208     -4.111929152756279     -6.570173237599773
    -1.877490441670868    -0.8948057069066374     -1.390797711410167
   -0.7988558481704156    -0.9943625933298931    -0.2518105399439398
    0.2327080996435663     0.1715074673234104     0.9641281545441852
    0.2750356582959719     -1.037850190005848     0.1662915827538246
    -0.127426013091702    -0.5429101971902797     0.3563760349051388
     3.765333968418343    -0.2637380837229013      -1.30939591783871
 -0.007091696728187487    -0.3780936912586446     0.2054476497381073
     2.248114432646946      2.317246528640653     0.9985521141102913
  -0.06528460261367192    -0.6358352834022273      1.130133726473539
    0.9380996522947685      3.386297410711924      5.516196386259026
   -0.5937870359717251    -0.7540133536489416     0.2982606169736062
    0.1109435132140846     -0.459388338514758     0.3057645687238991
    0.7673464191570097     -1.056632847608975     -1.084899743391435
   -0.1125341844256845     0.1648917113394013     0.1128608753509476
    -1.224195468216568    -0.2642424251830178    -0.1635892975950796
   -0.1511648804347775    -0.5308533742573176     -1.019003329832369
    0.7169058237631236     0.1168035547983465    -0.5956228826890959
    -1.175327383180634    -0.9805517042237679     -3.576033235045489
   -0.2599709541586507    -0.3679997205360385     -1.320777526302243
   -0.2594907237191146    -0.3016292847000742    -0.8595954896466796
    0.1116201672019504     0.7114714243428593      0.143594469878282
    0.5264327041266773     -1.192687068205506    -0.4329948770846196
    -3.201409906496487    -0.6342328073807774   -0.05210974931684186
    0.5017872103223749      2.111908947901859      0.632266798086639
   -0.9598332246468189     0.2999604234274045      1.053023772199919
     1.090393516308052    -0.6139451005894233     0.5509883322772812
   -0.7225186380282969    -0.5257001514167521     0.5657412821158797
   -0.9702646564920326     -1.391783839559922     -1.292261097699622
    0.4535090147471685     0.1307815952390207   -0.08760983671054634
   0.01091913359578839   -0.08232730577532849     -1.931644743327705
    -1.260982848953904    -0.7208495198680129     0.8123889036695575
  -0.03768219293347064   -0.07652077751590884     -0.187828723057416
    0.1001813141030776    -0.3525651912981477    -0.6526318938532811
    -0.837201205602416      1.276779004698581     0.1664952904656252
VERTICES 128 256
1 0
1 1
1 2
1 3
1 4
1 5
1 6
1 7
1 8
1 9
1 10
1 11
1 12
1 13
1 14
1 15
1 16
1 17
1 18
1 19
1 20
1 21
1 22
1 23
1 24
1 25
1 26
1 27
1 28
1 29
1 30
1 31
1 32
1 33
1 34
1 35
1 36
1 37
1 38
1 39
1 40
1 41
1 42
1 43
1 44
1 45
1 46
1 47
1 48
1 49
1 50
1 51
1 52
1 53
1 54
1 55
1 56
1 57
1 58
1 59
1 60
1 61
1 62
1 63
1 64
1 65
1 66
1 67
1 68
1 69
1 70
1 71
1 72
1 73
1 74
1 75
1 76
1 77
1 78
1 79
1 80
1 81
1 82
1 83
1 84
1 85
1 86
1 87
1 88
1 89
1 90
1 91
1 92
1 93
1 94
1 95
1 96
1 97
1 98
1 99
1 100
1 101
1 102
1 103
1 104
1 105
1 106
1 107
1 108
1 109
1 110
1 111
1 112
1 113
1 114
1 115
1 116
1 117
1 118
1 119
1 120
1 121
1 122
1 123
1 124
1 125
1 126
1 127
POINT_DATA 128
SCALARS mass float
LOOKUP_TABLE default
              0.015625
              0.015625
              0.015625
              0.015625
              0.015625
              0.015625
              0.015625
              0.015625
              0.015625
              0.015625
              0.015625
              0.015625
              0.015625
              0.015625
              0.015625
              0.015625
              0.015625
              0.015625
              0.015625
              0.015625
              0.015625
              0.015625
              0.015625
              0.015625
              0.015625
              0.015625
              0.015625
              0.015625
              0.015625
              0.015625
              0.015625
              0.015625
              0.015625
              0.015625
              0.015625
              0.015625
              0.015625
              0.015625
              0.015625
              0.015625
              0.015625
              0.015625
              0.015625
              0.015625
              0.015625
              0.015625
              0.015625
              0.015625
              0.015625
              0.015625
              0.015625
              0.015625
              0.015625
              0.015625
              0.015625
              0.015625
              0.015625
              0.015625
              0.015625
              0.015625
              0.015625
              0.015625
              0.015625
              0.015625
              0.015625
              0.015625
              0.015625
              0.015625
              0.015625
              0.015625
              0.015625
              0.015625
              0.015625
              0.015625
              0.015625
              0.015625
              0.015625
              0.015625
              0.015625
              0.015625
              0.015625
              0.015625
              0.015625
              0.015625
              0.015625
              0.015625
              0.015625
              0.015625
              0.015625
              0.015625
              0.015625
              0.015625
              0.015625
              0.015625
              0.015625
              0.015625
              0.015625
              0.015625
              0.015625
              0.015625
              0.015625
              0.015625
              0.015625
              0.015625
              0.015625
              0.015625
              0.015625
              0.015625
              0.015625
              0.015625
              0.015625
              0.015625
              0.015625
              0.015625
              0.015625
              0.015625
              0.015625
              0.015625
              0.015625
              0.015625
              0.015625
              0.015625
              0.015625
              0.015625
              0.015625
              0.015625
              0.015625
              0.015625
VECTORS velocity float
    0.0135967580988076    -0.1672131100984132     0.1707292000389467
    0.3078014398198256    0.04464699829078959     -0.327376484701113
    0.0155341125947622     0.4720905176141066    -0.1266367305628873
    0.7282251403629708    -0.2340996717839957     0.1307503529682472
   -0.6113015081593516    0.09144684778838393   -0.05046616399659665
    0.2363678641569312      0.368774986392706     -0.448041953743418
-0.0002847223542060775    -0.4803328488949765     0.4348571213539626
    -0.459745105244757     0.2721033416869082    -0.4908771837986971
   -0.4046614663042611     0.2512767126792319     0.1078514147856926
    0.5286149762583113     0.1165401282979742     0.2065442268602892
   -0.1187551304998507   -0.05671971913318572   -0.06732066069678866
   -0.3159830018007337   -0.09211931880734586     0.2858093967968611
  -0.04614533781530693     0.6707344290051215     0.6224583821635754
   -0.2942993103408214     0.2578462461741417   -0.09276482928833185
      0.21252362421706     0.3220843137793259   -0.03606502975336856
    0.3885714487199765     0.2294229022100785     0.4154117269677229
   -0.3530437929914874     0.2369514529544125     0.0753272647275688
  -0.01711543951845516     0.5605699529355596    -0.5107304605348379
   -0.2284028797697126    -0.1613180430466942     0.1374749141188695
  -0.05545535197295982   -0.03548654876232249    -0.1669735278355516
    0.3398191916438263     0.1042364960365715     0.2001628379631672
   -0.1169064966510544    -0.4255149688760544     0.5036397137975233
    0.5785577762939403     0.1857873298470941     -0.160557601571709
 -0.003053239962127765     0.3143782406980868  -0.005061282161633714
    0.1036703959054594   -0.09129236058893374    -0.1025240729037368
    0.1561668640058969    -0.6764817575851602    -0.2714618509295372
  -0.05634732642369367    0.09540792117807739    -0.1396076388542338
  -0.05433773278316995     0.2550673320098993   -0.09732693939223061
    0.2574312762898841    -0.1289015614347207    -0.5073234082745444
  -0.06152927122867456   -0.08973843632350781      0.061748511655499
   0.06049685713362192    -0.7252285559246237   -0.06666863187550996
    0.2911597182808605    0.01413274778483767   -0.07557754934837456
  -0.05498221835289412    -0.6917257291083778    0.04664744863981056
    0.1351619631885261    -0.7815311577491997    -0.3051132062772263
   -0.1497656314597255     0.1337987154531377    -0.1576964814283335
   -0.2394708065945151   -0.06534336276473682      0.130947535080414
    0.2447556075900449    -0.8179277958583876     0.1460066569100913
    0.1222191428096479   -0.08802281097683841    0.05020763858375901
   -0.1744928115304805   -0.01084668147556828   -0.06168066187369303
   0.02259301299997729     -0.116723574748029    -0.2123019326107631
   -0.1193649472754449     -0.355123111816465    -0.2735243716649481
   0.02137070507024164     0.3275440047258397     0.7563382935562909
   -0.2751736935799481    -0.2120217117339708    -0.1718517388473672
     0.145609795015419    -0.1790613632954124    -0.5767422345412438
   -0.4512978064570981     0.5737146487686577   -0.01183797914180833
  -0.04199973554964068    -0.1124979599720113    0.06027046462257511
    0.2901237364830245     0.2372992502019469     0.5448538619195841
  -0.04495637970568363    0.05352392935647528    -0.2070800287118023
    0.2163570727534827    -0.4642603514846243    -0.3533517662755876
   0.08748968356148305     0.4692279816113349     0.0303320134423196
  -0.09281454215127263    0.07188875563324566      0.768935919580397
   -0.2635620514074921     0.1917524979917643    -0.1747610783384827
   -0.3796687478150312    -0.2186239887042785     0.2100538451530991
   -0.1317676566704473     0.1112534772677876    -0.2459959866908164
   -0.2204446677117186    -0.2449481971856403    -0.3406609718990592
    0.2551593033903154    -0.2952481030402205     -0.213620807740881
    0.4608988972961685     0.2777327249507844    -0.1490091322776324
   -0.2812448311638031    -0.1704087739430396     0.3159977477361786
   -0.1680571681211985     0.1012032550376964     0.2069612937634641
    -0.309212629618524     0.2749090570424613     0.4205991154508344
  -0.01282937720685976   -0.02019468367113852    -0.0331972025329936
    0.3692692365625055     0.3314329990760945    -0.1300632931837271
    0.5789057534512188    0.03531049458969868      0.421429765678664
   -0.2759122870343769     0.1451341377890517    -0.1013457404037133
  0.008521019304257723      -0.15503807914129     0.1688353750948507
    0.2985580024075172    0.05402294256326762    -0.3272450007411014
  0.006311188790775047     0.4813003959906576    -0.1266860109719284
    0.7189357513780091    -0.2246102458969673     0.1306252642340706
   -0.6207460357948893     0.1005403764381351   -0.05067573371810932
    0.2271518026410341     0.3780979340082214     -0.447947123997099
 -0.009343423250591766    -0.4709880206385314     0.4347582150614387
    -0.468971711192717     0.2813500072872117    -0.4908154209955684
   -0.4135677886118414     0.2607154590294703     0.1079975761504499
    0.5195115831784295     0.1258608683189769     0.2066683065060266
   -0.1236547819758674   -0.04761534993283156    -0.0672150692301105
   -0.3244281147505847   -0.08375112571469308     0.2860734617550995
  -0.05534215826374808     0.6800237479410781     0.6224868486566905
   -0.3032551490400499      0.267195734231962   -0.09269067059866519
    0.2034567576851025     0.3313993971491594   -0.03600422298372517
    0.3793078746686531     0.2386524989779607     0.4155590804963328
   -0.3622233470029329     0.2462299765643436     0.0751022300289718
  -0.02619467753240247     0.5698593974873697    -0.5107279438754315
   -0.2348699405113358    -0.1517355471208099     0.1374234565952231
  -0.06454819407679975   -0.02627784059458239    -0.1669705066751493
    0.3303125739944288     0.1135876244716705     0.1996970618193989
   -0.1260239428862756    -0.4162798191259737     0.5038925318567733
    0.5691232680077404     0.1948358396802875    -0.1609317513133349
  -0.01224843800777669     0.3236727201107623  -0.005029799720229149
   0.09839831634971923   -0.07735977544814288   -0.09858162664536772
     0.146533577755117    -0.6675643113089067    -0.2713072715079027
  -0.06251221697450275     0.1047913692622671    -0.1401996586547956
  -0.06339041375294997      0.264374542067467    -0.0967813164857193
    0.2481008474248365    -0.1196526214294129    -0.5071160997578337
  -0.06580112021506222   -0.08092511631277927    0.06118705214316324
   0.05055606926838295    -0.7155513229790174   -0.06587252990192607
     0.281903707761854    0.02364312406805054   -0.07554880196404835
  -0.06403611419069107    -0.6823650967043193    0.04678600393545753
    0.1260391766518492    -0.7723128973915484    -0.3050826353617517
   -0.1588995866983099     0.1431075641069467    -0.1576900921471802
    -0.254417688557793   -0.05614925617823884     0.1280619912366987
    0.2355639527689609    -0.8086310848178682     0.1460289327553015
    0.1129086619883097   -0.07705288464623639    0.05096540424634941
   -0.1834251374314631  -0.001528527596332056   -0.06165256879509255
   0.01722660883891813     -0.107056901135207    -0.2117706860348512
   -0.1285552577664167    -0.3457260918256895    -0.2735865951732062
     0.012197694810993     0.3368163734847688     0.7563657857203235
   -0.2843321737406816    -0.2030099159544849    -0.1721251291742004
    0.1364244400261517    -0.1697705104815367    -0.5767156582857366
   -0.4608570057447561      0.583102049612816   -0.01180584653922629
  -0.05103721264567416    -0.1032251349067938    0.06030586254222972
    0.2808253349878011     0.2466143947645535     0.5447335411208146
  -0.05262505823239039    0.06295279240410592    -0.2061645897577173
    0.2073538880988664    -0.4549944834269865    -0.3532460713908884
   0.07838328197067441     0.4785148031673414    0.03039846662959326
   -0.1019293412346848    0.08122585489347546     0.7689900532747772
   -0.2726779002149037     0.2008029474063126    -0.1748353323886246
   -0.3924820300174089    -0.2085694775414906     0.2097625875716529
   -0.1402907550583894     0.1208934925491911    -0.2457796881188607
   -0.2295656436248507     -0.235719403688713    -0.3409036133726343
    0.2456629753866197    -0.2861014317331312    -0.2133735857959099
    0.4516492465388329     0.2871604466180367    -0.1491571886935323
   -0.2901585566122962    -0.1608279406695312     0.3163114214450188
   -0.1773502412969514     0.1105288324844498     0.2069802032267514
   -0.3178491352262577     0.2841434116345498     0.4205493983825773
  -0.02224109106498425   -0.01063026017210096   -0.03354109367940778
    0.3600662508735823     0.3407213625266498    -0.1300405031816874
    0.5697772290421524    0.04457680700161079     0.4214341564485033
   -0.2849759501277504     0.1541332167596349    -0.1013128809582138
