# vtk DataFile Version 1.0
NBODY      2.000000000000001                   0.02
ASCII
DATASET POLYDATA
POINTS 128 float
    -13.21581399726721     -5.874499875921853      3.700470717986263
    -8.325892975655583     0.2010850576340933    -0.2774890612337065
    -9.550498988581998      1.055858093607316     0.2041722996767836
    -7.230560028733225     0.0936818574713814    -0.3213996017051561
    -9.502877333949074    -0.2658161145366686    -0.6043019070518898
    -8.897380424879458     0.1658776303998278    -0.9887800470889444
    -9.451150732406953    -0.9878056897828086      1.440524485487114
    -9.552090081316752     -0.162225161308483    -0.6143338029869594
    -9.592929820637513      1.374554105289653     0.6955207068224808
    -8.747051326670316    -0.3502504582295889    -0.5519299442938803
    -9.481722774559055      4.423031381531442     -5.011601104880914
    -8.500781506096525       -2.8276049885304      1.322880896131742
     -9.31946022610409     0.8561061693517817        1.0591327406596
    -9.551163549690877      1.351006581562186   -0.01512837307999753
     -8.92367283566338     0.6893659433802583     0.2722869226619727
    -8.917184722512317     0.1774571006421237     0.1860786416309787
    -10.35800971185603      0.169421339028566     0.7184436357625811
    -9.231765330080114      0.334385602216449    -0.4794932843697591
    -9.052665480593767      4.072021409937926     -1.448742279360892
     -9.05582931767608    -0.7805213053373785    -0.2364526502962644
    -9.710423859132225     0.1819642610355307      1.122518706662338
    -9.627443701672169      -0.77320672354495    -0.1079993020059258
    -7.155458408387243    -0.3151295801160498     -1.211417775500749
    -10.55319135440318      1.245218413741129      1.624754783397067
    -2.737366354146515      4.380021735331789      4.304686629399353
    -9.968485320768201    -0.6121320270405544     -0.680577957882061
    -9.914282285745365      3.198697949593763      4.780887815265555
    -8.401304186137329     0.2534719458818872      1.266710315356838
    -8.189585721558228    -0.5159290549109681    -0.3498698130951819
    -8.338959038240771     -4.244789065973309      -6.44880694168322
    -10.77706005439938      -1.99613463060089     -1.409949029602642
    -9.239788967784643     -0.685739993051123    -0.2769364220627512
    -9.148087425389356    -0.9159586046470325     0.6792338464621197
    -8.807722789842765     -1.840983835329831    -0.4748299352057076
    -9.199430135711369    -0.1521355561063762    -0.1520145501420548
    -5.781513460999625    -0.3687216847346769     -1.069862746633096
    -8.838802777975507     -1.390185483358263     0.3224637949287416
    -6.727921041173249      2.112156862487911      1.051839157301564
     -9.47836377865795    -0.4595095058400598     0.7557471570754313
    -8.161044378749025      3.177720453924562      5.146123714670997
    -9.631576924015704     -1.012167239328879    -0.2552482616625128
    -9.167165310057104   0.006867551457038654      1.083755432579846
    -8.923832957509168     -1.183979384841348      -1.14891167915009
    -7.598221757124204     -1.010261403913692     -2.469515033303027
    -10.78369851913313     0.6343619828801188    -0.1742428813416602
    -9.284988057196951    -0.2271835088312841    -0.3657481312700877
    -8.349462561967409     0.3223712968168442     0.3694682509132068
    -10.35097717871639    -0.8848569364918965     -3.835536723906726
    -9.014041351366362     -1.017619441562542     -1.465154421710061
    -9.332107381619691   0.002920053284792647    -0.7568644157973053
    -9.248017458955919     0.8228101943119781      1.190735933464586
    -9.187909304612115    -0.5447004688851063     -0.544053492336532
    -12.84431041590635    -0.9719099354611094     0.2803891508933368
    -8.877673682029446      2.112171445159194     0.2114871252086069
    -10.26582024160652     0.1210415656454913     0.7156076882722627
    -7.918695996332977    -0.9182255637316432    0.08759492255617951
    -8.867033333104876   -0.04241458828808401    0.05665663144012129
    -10.44280160100474     -1.514343495730937    -0.6932093775277169
    -9.180031335087429     0.1231258913011075     0.1101229450041252
     -9.57831512239064     0.2376780836428594    -0.9452350920130498
    -10.17377227636967    -0.6084817857647213     0.6422030555702227
    -8.451343056014764     0.4393763976588717    -0.1746895267717058
    -8.363807577774358    -0.2131205272025088     0.1272137962553059
    -10.23607936193129      1.283700436504973    0.02710379591259392
    -4.104500647220612     -5.841491339744148      3.691187786509845
    0.7638787081779089     0.2206673470281257    -0.2770322569220217
   -0.4602130247235495       1.07432672914638     0.2040572580588054
      1.85787781781548     0.1138470355020645    -0.3222509749709211
   -0.4129436572401936    -0.2468793048737664    -0.6045165903841048
    0.1931684795357529     0.1848485105271608    -0.9884654502905579
   -0.3597047495989732    -0.9683548653338271      1.439910644174224
     -0.46212395430944    -0.1431573487217405    -0.6139875885434528
   -0.5010179164908919      1.394011553081988     0.6961245841463891
    0.3438046945145133    -0.3315677774504218    -0.5519600555353672
   -0.3701123986375441        4.4409826191751     -5.010920893195812
    0.5939138106585882     -2.812656411608381      1.324187337385914
   -0.2288748404057038      0.875139804001223      1.059109692485454
   -0.4595554663014133      1.370024899935397   -0.01480483276817269
    0.1672060278695139     0.7086372531347143     0.2725989894743701
    0.1729563255556144      0.196117231016488     0.1866305757775674
    -1.267979533349651     0.1881675331157189     0.7172153899038659
   -0.1411555218043598     0.3533644649856982    -0.4794464446396862
   0.05074206952199405      4.092079082396888     -1.448824122347884
   0.03499703326506578    -0.7618975473704938    -0.2364352477980944
   -0.6208980530215985     0.2013751123771359      1.120415118331377
   -0.5371032561098317    -0.7543160386539961    -0.1070257456933064
     1.932631161064032    -0.2972761642129434     -1.213976510435587
    -1.463824499381154      1.264187562617058      1.625808355462031
     6.371735261887627       4.42287141703857      4.324867483818703
   -0.8803753561433186    -0.5941121545867866    -0.6797190897909834
   -0.8094786265956898      3.218251314297198      4.777768027180554
    0.6896705154405088     0.2727653425972281      1.269306904139189
    0.8995001702282501    -0.4972463068940914    -0.3492247209037622
    0.7757516197288793     -4.228078914574939     -6.451490710069608
    -1.689413768485453     -1.974339070157591     -1.406220815605982
   -0.1496483775966828     -0.665917832090936    -0.2768189976873134
  -0.05721823599113771    -0.8967987271295261     0.6798619319173881
    0.2833783301909562     -1.822613764014934    -0.4748420794773965
   -0.1090180389115036    -0.1328890675508238    -0.1520230895476757
     3.282018441784682    -0.3503333526971507     -1.082956497912666
    0.2517776966413003     -1.371235856875819      0.322580954328831
     2.361328084241985      2.139656535460785      1.055759516949413
   -0.3868978172555199    -0.4402486361949976     0.7556935254881852
    0.9477466754642923      3.198684560324204      5.148845196043403
   -0.5412309435991443    -0.9923817820692302    -0.2555409121613411
   -0.0766250610148233    0.02592170821088582      1.083907512430572
    0.1672368054663008     -1.166236061834766     -1.150209211181008
     1.493192909610133      -0.99150761810913     -2.471408784046079
    -1.696051230495371     0.6533332017311383    -0.1740159601734036
   -0.1941841385115623     -0.208472085015149    -0.3657435587776547
    0.7397776931347202     0.3416653406223935     0.3691500252092189
    -1.252760595413297    -0.8651744313757587     -3.830798295573636
   0.07760176655693284    -0.9987633501505344     -1.464822517846323
     -0.24142461370577    0.02197551377238813    -0.7565141174157953
   -0.1569364722036084     0.8421539778329532      1.191236858508506
  -0.09712720332642343    -0.5265871536989182    -0.5443774047475481
    -3.774448527985214    -0.9477833446233481     0.2779408315348249
    0.2160130336555353       2.13283228497742     0.2124241524112185
    -1.175777492981789     0.1397989765298658     0.7144104286129335
     1.169756110388693     -0.900206059022724     0.0885925929254638
    0.2231626306349327   -0.02299079918098703     0.0561642035761674
     -1.35149501048524     -1.493403997509866    -0.6915943108421795
  -0.09000167434614967     0.1423673007007339     0.1101381284516323
   -0.4858933523077831     0.2564089930895733    -0.9450420463277343
    -1.084557203264563    -0.5880954796079597     0.6405885538788255
    0.6387109595389554     0.4583343970717861    -0.1744721452512294
    0.7263954242456119    -0.1943070806312661     0.1271705757720583
    -1.145338649996188      1.300929744730901    0.02733871551968578
VERTICES 128 256
1 0
1 1
1 2
1 3
1 4
1 5
1 6
1 7
1 8
1 9
1 10
1 11
1 12
1 13
1 14
1 15
1 16
1 17
1 18
1 19
1 20
1 21
1 22
1 23
1 24
1 25
1 26
1 27
1 28
1 29
1 30
1 31
1 32
1 33
1 34
1 35
1 36
1 37
1 38
1 39
1 40
1 41
1 42
1 43
1 44
1 45
1 46
1 47
1 48
1 49
1 50
1 51
1 52
1 53
1 54
1 55
1 56
1 57
1 58
1 59
1 60
1 61
1 62
1 63
1 64
1 65
1 66
1 67
1 68
1 69
1 70
1 71
1 72
1 73
1 74
1 75
1 76
1 77
1 78
1 79
1 80
1 81
1 82
1 83
1 84
1 85
1 86
1 87
1 88
1 89
1 90
1 91
1 92
1 93
1 94
1 95
1 96
1 97
1 98
1 99
1 100
1 101
1 102
1 103
1 104
1 105
1 106
1 107
1 108
1 109
1 110
1 111
1 112
1 113
1 114
1 115
1 116
1 117
1 118
1 119
1 120
1 121
1 122
1 123
1 124
1 125
1 126
1 127
POINT_DATA 128
SCALARS mass float
LOOKUP_TABLE default
              0.015625
              0.015625
              0.015625
              0.015625
              0.015625
              0.015625
              0.015625
              0.015625
              0.015625
              0.015625
              0.015625
              0.015625
              0.015625
              0.015625
              0.015625
              0.015625
              0.015625
              0.015625
              0.015625
              0.015625
              0.015625
              0.015625
              0.015625
              0.015625
              0.015625
              0.015625
              0.015625
              0.015625
              0.015625
              0.015625
              0.015625
              0.015625
              0.015625
              0.015625
              0.015625
              0.015625
              0.015625
              0.015625
              0.015625
              0.015625
              0.015625
              0.015625
              0.015625
              0.015625
              0.015625
              0.015625
              0.015625
              0.015625
              0.015625
              0.015625
              0.015625
              0.015625
              0.015625
              0.015625
              0.015625
              0.015625
              0.015625
              0.015625
              0.015625
              0.015625
              0.015625
              0.015625
              0.015625
              0.015625
              0.015625
              0.015625
              0.015625
              0.015625
              0.015625
              0.015625
              0.015625
              0.015625
              0.015625
              0.015625
              0.015625
              0.015625
              0.015625
              0.015625
              0.015625
              0.015625
              0.015625
              0.015625
              0.015625
              0.015625
              0.015625
              0.015625
              0.015625
              0.015625
              0.015625
              0.015625
              0.015625
              0.015625
              0.015625
              0.015625
              0.015625
              0.015625
              0.015625
              0.015625
              0.015625
              0.015625
              0.015625
              0.015625
              0.015625
              0.015625
              0.015625
              0.015625
              0.015625
              0.015625
              0.015625
              0.015625
              0.015625
              0.015625
              0.015625
              0.015625
              0.015625
              0.015625
              0.015625
              0.015625
              0.015625
              0.015625
              0.015625
              0.015625
              0.015625
              0.015625
              0.015625
              0.015625
              0.015625
              0.015625
VECTORS velocity float
   0.03241499613780068    -0.1470929555501862     0.1578407063802908
 -0.005711022939411249   -0.09481057955660208    -0.4094350169675242
     0.266031771467117     0.2131240870161066    -0.1440513082569775
    0.4611221011607977    -0.3762613977457768     0.2240127576126583
   -0.8574685396398958     0.4927963260626735     0.3059113162740405
     0.448050522627487     0.2193994723674273     0.1500766354930758
    0.1401975891877749    -0.3344707698305622    0.03563879378431022
  -0.07950233834302506   -0.01028030669133233    -0.5292498246042797
   -0.3877798772630462    -0.1023282329592116     -0.084712402953834
    0.2561218685572902    0.07014463526688343     0.4477781656872465
   -0.1077910232631479   -0.08267483479590094   -0.03802142361813678
   -0.3369491598024684    0.02742000309478734     0.2310891548290544
 -0.003754294596724822     0.3406812729078608     0.7260143560780925
   -0.2769984362580495    -0.1152539397065277    0.04914801127070657
   0.03470869957144609     -0.277169008036543    -0.1604632652965496
    0.5297036433166185    -0.3055945261901648     0.5457340474106774
   -0.1640067155488339    -0.2452654783736686    -0.4650664985142633
   -0.0878040914284671     0.6495064606344821    -0.2441519403234954
   -0.2182671570491658    -0.2266326247921367     0.1617474508661418
   -0.1810658611180556     0.4089472341111423    -0.1791811345327018
    0.5585224095494669     0.1972812876603809    -0.1863506378333449
    0.4100917428448402    -0.3607798909526627     0.6872691693324806
    0.3765670391104301     0.2194623783404462   -0.01540315757831028
   -0.7842655084159845     0.6472142217666648     0.9344499537193062
    0.1065467530607593    -0.1228191380350493    -0.1300620893474023
    0.5338641257354093    -0.7532063213037246   -0.08844951339749151
   -0.0332713662679275     0.0713922762364141    -0.1766232736543852
   -0.2058956637788284     0.2294168884819661    -0.3503993258999432
   -0.1077308173147819   -0.02881638502831323    -0.5684665018921059
  -0.05557254504024641   -0.07148306177854521    0.09015859322041928
    0.2209729145823821      -0.63544559848667    0.04169169040971429
      0.55143389460554     0.3952163070785848    0.00782336649365606
   -0.2480283675559375     -0.568371757732387    -0.3598022163909045
   -0.0149551361597438    -0.2913321366859224    -0.4044041183660151
    0.1239550382517065     0.3434801588636708    -0.4204882223487295
   -0.2850825378073889   -0.06023449623867334     0.1682209493551992
    0.1290234114202178    -0.4349962906086636    -0.0412824937097571
   0.07488819952437947    -0.1634522268048194    0.01560950554409626
    -0.108986315950373     0.2066155057494278    -0.3836183746237218
   0.02198697262641553    -0.1396941587182066    -0.2512198334664053
    0.2414243214255489    0.09445470784421815    -0.4142251169694802
   -0.1340935142808741     0.2568933085887583     0.3088039055538007
   -0.4137198362547825    0.06892924957807625    0.07345118552893254
    0.9917238521136655    -0.7753615796759735      -1.53593664405912
   -0.1043721918279032     0.5284502048029648    0.01262102880638645
    0.1242564685973639     0.3260348707123539     0.5125306274656822
   -0.2535450794399494  -0.003868071447538246     0.5277372717624854
 -0.006565946425379248    0.06947966232130602    -0.1187758327047826
    0.2623811242264185    -0.3387965318557504     0.1222142990045996
    0.1175240211251491   -0.01818892190329412     0.2002262465302715
   -0.2379961686540093   -0.01217160916251676     0.3469731651903424
    -0.463294905341802     0.6398334214598863    0.09211572850862715
    -0.262733794143136    -0.1981915625152712     0.2044947241671583
    -0.175569031095339    -0.1108508629272918    -0.2718097982384011
    0.1513313927265464   -0.01631822956406902   -0.07770470586734363
  -0.07600399311591921   -0.08140801652403391    -0.3555639760247217
    0.6288429497847733     0.3779350011177913    -0.5274569941864795
   -0.1312829144923814    0.01584500832657341     0.4159266971371831
   -0.2667412381222515    -0.0505966097568496    -0.0716101988649666
   -0.1912921764417239     0.0847650824505464     0.8521519152417666
    0.2874425608517288     0.1645536847963434    -0.1770082660660263
    0.4117150464598433     0.1191694684489007     0.1260670926835068
     0.246741553967355     0.1455927426847409      0.467152541489419
  -0.04375038572818134    -0.1194529202446345   -0.06386047571644182
  0.007994547815978437    -0.1232844455471258     0.1485210322274395
  -0.05259895798824051   -0.08417672043913167    -0.4091568990863237
    0.2201290632622487     0.2223165125666393    -0.1440956530415963
    0.4119463563174919    -0.3652584390853814     0.2230496560600929
   -0.9031298324658975      0.503004679315658      0.306593493869013
    0.4023074633973305     0.2292197111465037     0.1502154104403645
   0.09556428609807306     -0.324065086777389    0.03491681976767368
   -0.1263386712797682  3.046052821340656e-06    -0.5291831865528899
   -0.4322801754808993   -0.09229101740326655   -0.08418770612114906
    0.2105390379453748    0.07942744714658849      0.447087940466804
   -0.1323404211091651   -0.07399070739459986   -0.03721955744104628
   -0.3781728918308129    0.03353333997800132     0.2323820480434217
  -0.04959110750881141     0.3507190698766743     0.7252783925095758
   -0.3218219786644931    -0.1056373302450611    0.04937866614698084
  -0.01088534196751367     -0.266969426442234    -0.1601719663605849
     0.483297479619581     -0.296298477980372     0.5460477767944774
   -0.2106887515700998    -0.2357191903549762    -0.4662520478389454
   -0.1336620154540656     0.6593621171164938    -0.2440749806107151
   -0.2514583240148567    -0.2160087272957757      0.161780647874647
   -0.2262658314153683     0.4184352381576281     -0.179027702159727
    0.5120340446931023     0.2075150998180981    -0.1882183352503478
    0.3638468936841118    -0.3511070933495086     0.6877707366716989
    0.3275159784096089     0.2282374542931279   -0.01853403313406468
   -0.8309103312094056     0.6566573850271156     0.9346045860438023
   0.07893292767591321   -0.08813929629311153    -0.1091081219934247
    0.4855620887211482    -0.7438636048307217   -0.08775621415142194
   -0.0651403623297437    0.08186905896480048    -0.1799176833395064
   -0.2513246023527938     0.2396983635165408    -0.3478897937885328
   -0.1554149188704168    -0.0192639248203425    -0.5682092252756411
  -0.07699282446043991   -0.06389671114526656    0.08751817786634729
    0.1730931185226425    -0.6222460217131041     0.0452365382541907
    0.5048913740059903     0.4055551367976357    0.00770837835186842
   -0.2936460266311776    -0.5584189670625286    -0.3593030419841871
  -0.05990599711371827    -0.2822905454550282    -0.4045586165206478
   0.07788596061929411     0.3536659730635336     -0.420347214663604
   -0.3570946910927578   -0.05112486681828604      0.155914396203995
   0.08345133260049513    -0.4253160893482953   -0.04118643195166451
    0.0273410366633953    -0.1449197524777648    0.01967415750105851
   -0.1540585591397268      0.216785749783462    -0.3838181930707124
 -0.005800060794587223    -0.1277870308086285    -0.2483934343539093
    0.1953936807377129     0.1053553050819513    -0.4143262920076771
   -0.1798141030221493     0.2668204139795372     0.3089247881349437
   -0.4587176639765115     0.0777164980079053    0.07215264533180225
    0.9467898434579787    -0.7660738832476622     -1.538428943016688
   -0.1536764092776738     0.5378075357192209    0.01290326935229279
   0.07837668575900766     0.3356624520773091     0.5128148894865586
   -0.3011112649577254   0.006295484819845801      0.527502241242784
  -0.04444827002843586    0.08000629213772137    -0.1138291611189158
    0.2178483347137775     -0.329254905966556     0.1223847307775262
   0.07177122909399711  -0.008195140236044618     0.2002876958487918
    -0.282865178735369  -0.002106260340589657     0.3481377228384958
   -0.5088312904490113     0.6490014684810673    0.09197466986355657
   -0.3313625274930603    -0.1821360896665659     0.2011600463239936
   -0.2182522531279393   -0.09937698367175861    -0.2709807375766318
     0.104660912525045  -0.006759996929622532   -0.07893602785072135
   -0.1241582894196011   -0.07270757540819996    -0.3548179846632166
    0.5825817999968994     0.3881274291341384    -0.5276754419818006
   -0.1766859493463334    0.02803827033785035      0.417511945177374
   -0.3126034603461673   -0.04039009836827712   -0.07174944367579895
    -0.235789173981556    0.09420670877718182     0.8528165738738122
    0.2402611192350141     0.1757696636429579    -0.1785357118325931
    0.3654653352541035     0.1290069604936572     0.1262865763356088
    0.2002082881544196     0.1551586346917627     0.4671174365796137
  -0.08959074378458153    -0.1115715910521336   -0.06359077440320261
