# vtk DataFile Version 1.0
NBODY     0.6000000000000002                   0.02
ASCII
DATASET POLYDATA
POINTS 128 float
    -13.24971292772635     -5.656216933083536      3.471531527109855
    -8.508942961797054     0.2934885122739031     0.3323394460053467
    -9.794574657250392     0.6235620012960165     0.4059296997968882
    -8.032059615709708     0.5612763626632449    -0.5984199508294213
    -8.392136383617236    -0.6042222322213532     -0.722651582736229
    -9.587491536076584    -0.2852794655580231    -0.7846250294073546
    -9.583924212156768    -0.4065288373768928      1.169253128772647
    -8.946149722838486    -0.3805768412908403    0.09322827900576489
    -9.019673805272564      1.300429490546593     0.7060281686349622
     -9.40693724974647    -0.5085431659428368     -0.896538874821755
    -9.323908676732334      4.522771709222366     -4.940161238811426
    -8.039303791788704     -2.792723720274171     0.9631697069080341
     -9.18560253254317     0.3106619205881607    0.08438369592728712
    -9.147488167265704      1.284637673486134     0.0102062751831381
    -9.085805192853075     0.8029315397790472     0.4715297129581728
    -9.669772905310936     0.1810356484483575    -0.5166206380977085
    -10.11081034850546     0.3065503586381255        1.0564254436273
    -9.192695122750653    -0.7195419555235304   0.007626790302763798
    -8.740295011877967      4.347486149157247     -1.659587832473459
    -8.948795822013716      -1.05002954391425   -0.06442151774083747
    -10.40324176107323   -0.06490413657260914      1.137209772964107
    -9.871496516715036    -0.1925612129256301      -1.03254582874796
    -7.788449214118307    -0.6063333551458397     -1.111806970257783
    -9.343384120153077     0.2339339145121108     0.1885375643642079
    -2.884515219750768      4.532036896578687      4.469390792330755
    -10.45074518214822     0.4412470232403889    -0.4283587963100219
    -9.853288665851641      3.083297843798282      5.004903984259478
    -8.212619968331895   -0.08794483742419389      1.598115992565197
    -8.279512275147143    -0.3803810215825223     0.4580970885011735
    -8.257396216015906     -4.133268103994759     -6.557395513875154
    -10.99724102315766      -1.04291168835455      -1.40299979232496
    -9.871145734930742    -0.9913052639580321    -0.2658582073662293
    -8.913775071143615    0.02803381504429656     0.9685556369462304
    -8.836857201519164     -1.190463474521687    0.09899258099896713
    -9.282867371504349    -0.5148698111371778     0.3177164467492519
    -5.415917365964065    -0.2804437723287836      -1.28223569972017
    -9.088270092844642    -0.5461425029048448     0.2402946453813674
    -6.862095664730886      2.294762614547413       1.00808105615377
    -9.235184010914413    -0.6388786562597711      1.112967610495057
    -8.192251008695628       3.35894164721543       5.47321406156726
    -9.747624432956876    -0.8240870174302251     0.2428528181326342
    -9.026044773598359    -0.3966157234145243     0.4435189555985591
    -8.423445780419964     -1.099707974247883     -1.116106294472063
    -9.077613057037704    0.07136423516689187    -0.1659018023252715
    -10.44389966608029    -0.1530116384387596    -0.1655774278419755
     -9.30053187847755    -0.5515171156224606    -0.9997392292699742
    -8.362803899805849     0.1590935816804564    -0.4838154201911444
    -10.31828948072575    -0.9733282959156858     -3.616538785868181
    -9.350473611809532    -0.4644469061133589     -1.383395760035503
    -9.378319150944744    -0.2172596143641302    -0.8504264982474268
    -9.042956152538318     0.7176178011851733     0.2993320467713146
    -8.662783479126469     -1.153397973634745    -0.4660801692846246
    -12.40924958906825    -0.6815611144169056   -0.01007511517031668
    -8.659285603328682      2.127980433320257     0.5824734855397844
    -10.10285384856488     0.2504420063666694       1.00440118058236
    -7.997472336680486      -0.67410183438128     0.5064518936501781
    -9.760205041762383    -0.4731107742664732     0.5328060583026455
    -10.15916531575853     -1.427251470968007     -1.227365289778062
    -8.719990754343726     0.1448577693800061   -0.04481841088141464
    -9.185455065728545   -0.03190882433300345     -1.843647678223431
    -10.39394276239147    -0.7263524376631392     0.8038901289017163
    -9.098334751978502   -0.01127977965952389    -0.2068449270228388
    -8.921498492153091    -0.3484388666873736    -0.5655172209280486
    -10.02425651640765      1.298774935822119     0.1462524188021635
    -4.116040071651203     -5.649413116268681      3.470707616107749
    0.6229176431264392      0.299074372303002     0.3323964915224293
   -0.6627053886893884     0.6290758921139515     0.4059082467297891
     1.099781023745574      0.566911247396785    -0.5984740800515959
    0.7396357507640562     -0.598759282731698    -0.7227428732131014
   -0.4556196959914974    -0.2797164327352243    -0.7845837446271775
   -0.4519837215103521    -0.4009565295325843      1.169210316514341
    0.1857179200539776    -0.3750473248290014     0.0932559121465677
    0.1123325823977015      1.306042875292243     0.7060918121153508
   -0.2750177725087306    -0.5029812286027334    -0.8964843187312919
   -0.1901588624899863      4.528239626232167     -4.940115401508931
     1.092903205733281     -2.787576473163517     0.9632845027722764
  -0.05372084204998932     0.3162114687614678    0.08439601714995246
  -0.01550314960339291      1.290212157701925    0.01023853735542488
   0.04613165377848093     0.8084909678168005     0.4715559428982423
    -0.537921394503186     0.1865581244254421    -0.5165563827654691
   -0.9789184442496273     0.3120866205148532      1.056322254174699
  -0.06076340554826091    -0.7139934557902894   0.007627937586872155
    0.3927731732992598      4.353162223900403     -1.659610340633246
    0.1831298410915245     -1.044516274300535   -0.06441995908787182
    -1.271496213874384   -0.05932908872497977      1.137007461226044
   -0.7395807585931586    -0.1870365233698363     -1.032435922132774
     1.343328452540061    -0.6008895667960898     -1.111969173199347
   -0.2115667146315957     0.2395048205865455      0.188646134622884
     6.249072927415859      4.539604626283689       4.47110551967525
    -1.319053924299066     0.4466331713705199    -0.4282917475483755
   -0.7200889916991752      3.088887036336628      5.004646554891584
    0.9193234140457789   -0.08238889423213407      1.598353306188899
    0.8523106027486569    -0.3748502605258935     0.4581870870294387
    0.8766267237393209      -4.12792691201798     -6.557639819253737
    -1.865684187991968     -1.037195540595595     -1.402653727492028
   -0.7392910919998179    -0.9856608917294393     -0.265845765335553
    0.2181678315363383    0.03361317313506607     0.9686158908317254
     0.295055745857384     -1.184946070511558     0.0990056751764509
   -0.1509589594044451    -0.5093129389656949     0.3177190797991049
     3.713460695864276    -0.2749368691027677     -1.283491520502385
   0.04361321955803852    -0.5405917287772194     0.2403046332258481
     2.269735762189323      2.301041749690845      1.008410567788163
   -0.1031885210093381    -0.6333179245195477      1.112979838830096
    0.9412960798749028      3.364654034699273        5.4734451141861
   -0.6157408859187482    -0.8184920944805064     0.2428258281678292
    0.1058457948336585    -0.3910744431211695     0.4435301868120662
    0.7084510226854643     -1.094280345821172     -1.116225191498209
    0.0543352914194009    0.07689050404831137    -0.1659856255194636
    -1.312176018926706    -0.1474207132772749    -0.1655635198579987
   -0.1685808905962566    -0.5459761011840456    -0.9997243298074313
    0.7690329421136481     0.1646529794271192    -0.4838675467824599
    -1.185744471173365    -0.9677192843767002     -3.616140648809088
    -0.218509228092934    -0.4589089448838499     -1.383349843325695
   -0.2463986438760389    -0.2117122870725962    -0.8503977312849366
   0.08896029086494893     0.7231867921260956     0.2993555988793732
    0.4691322032325665      -1.14795364822133    -0.4661124333289151
    -3.278940830489333    -0.6756806314416999   -0.01020145526946305
    0.4728878854089086        2.1336813725522     0.5825676690365345
   -0.9709437720112197     0.2559716286598012       1.00430125096914
     1.134278560767037    -0.6686152987505506     0.5065592073607452
   -0.6283476289526194    -0.4675021262586474     0.5327415114766303
    -1.027161361976387     -1.421576645629524     -1.227228980300957
    0.4118478474318724     0.1504216548669025   -0.04481032178746545
  -0.05333068165177871   -0.02638448763458947     -1.843669664438592
    -1.262155481119116    -0.7206846739622144     0.8037407160634144
   0.03354343053535895  -0.005730882292143439    -0.2068347022794493
    0.2104116460485849    -0.3429005342763007    -0.5655149500640958
   -0.8923180074113569      1.304197199333225     0.1462667103964972
VERTICES 128 256
1 0
1 1
1 2
1 3
1 4
1 5
1 6
1 7
1 8
1 9
1 10
1 11
1 12
1 13
1 14
1 15
1 16
1 17
1 18
1 19
1 20
1 21
1 22
1 23
1 24
1 25
1 26
1 27
1 28
1 29
1 30
1 31
1 32
1 33
1 34
1 35
1 36
1 37
1 38
1 39
1 40
1 41
1 42
1 43
1 44
1 45
1 46
1 47
1 48
1 49
1 50
1 51
1 52
1 53
1 54
1 55
1 56
1 57
1 58
1 59
1 60
1 61
1 62
1 63
1 64
1 65
1 66
1 67
1 68
1 69
1 70
1 71
1 72
1 73
1 74
1 75
1 76
1 77
1 78
1 79
1 80
1 81
1 82
1 83
1 84
1 85
1 86
1 87
1 88
1 89
1 90
1 91
1 92
1 93
1 94
1 95
1 96
1 97
1 98
1 99
1 100
1 101
1 102
1 103
1 104
1 105
1 106
1 107
1 108
1 109
1 110
1 111
1 112
1 113
1 114
1 115
1 116
1 117
1 118
1 119
1 120
1 121
1 122
1 123
1 124
1 125
1 126
1 127
POINT_DATA 128
SCALARS mass float
LOOKUP_TABLE default
              0.015625
              0.015625
              0.015625
              0.015625
              0.015625
              0.015625
              0.015625
              0.015625
              0.015625
              0.015625
              0.015625
              0.015625
              0.015625
              0.015625
              0.015625
              0.015625
              0.015625
              0.015625
              0.015625
              0.015625
              0.015625
              0.015625
              0.015625
              0.015625
              0.015625
              0.015625
              0.015625
              0.015625
              0.015625
              0.015625
              0.015625
              0.015625
              0.015625
              0.015625
              0.015625
              0.015625
              0.015625
              0.015625
              0.015625
              0.015625
              0.015625
              0.015625
              0.015625
              0.015625
              0.015625
              0.015625
              0.015625
              0.015625
              0.015625
              0.015625
              0.015625
              0.015625
              0.015625
              0.015625
              0.015625
              0.015625
              0.015625
              0.015625
              0.015625
              0.015625
              0.015625
              0.015625
              0.015625
              0.015625
              0.015625
              0.015625
              0.015625
              0.015625
              0.015625
              0.015625
              0.015625
              0.015625
              0.015625
              0.015625
              0.015625
              0.015625
              0.015625
              0.015625
              0.015625
              0.015625
              0.015625
              0.015625
              0.015625
              0.015625
              0.015625
              0.015625
              0.015625
              0.015625
              0.015625
              0.015625
              0.015625
              0.015625
              0.015625
              0.015625
              0.015625
              0.015625
              0.015625
              0.015625
              0.015625
              0.015625
              0.015625
              0.015625
              0.015625
              0.015625
              0.015625
              0.015625
              0.015625
              0.015625
              0.015625
              0.015625
              0.015625
              0.015625
              0.015625
              0.015625
              0.015625
              0.015625
              0.015625
              0.015625
              0.015625
              0.015625
              0.015625
              0.015625
              0.015625
              0.015625
              0.015625
              0.015625
              0.015625
              0.015625
VECTORS velocity float
   0.01604049589691506    -0.1646338813315107     0.1690994677843841
    0.2537499332177244    0.01322174728791997     -0.358286692197416
   0.05242353247060366     0.4379557823218776     -0.140654985907682
    0.6935367385238749    -0.2658194718265022     0.1507174603630406
   -0.6493980870847779     0.1020022577864531   -0.02954908105646288
    0.3221335166308787     0.3688723144713533    -0.4618668232299007
   0.01967701896910545    -0.4757190544734218     0.3808547948115061
   -0.5604952436674016     0.2718821593410636    -0.4585457284693035
   -0.4119499155662821     0.2079857297912361    0.07981226828113976
    0.6115748717527376     0.1826449732710361      0.215257744368418
    -0.117423803862792   -0.06001648936045803   -0.06366164126771384
   -0.3198241218331098   -0.07678439516973384     0.2799633645073913
   -0.1215360250451087     0.4522583942460336     0.7073478120555119
   -0.2946738997055647     0.2053086942248234   -0.07701785099280446
    0.2204465676463991      0.268254865953168    -0.1036676938424706
    0.4289035233578268     0.1864873965081257     0.4376193004381319
   -0.6029973374056771    0.04655626021255724    -0.2657551164269172
   0.01072504977691976     0.6294294643988773    -0.4885154631743018
   -0.2273426269222696    -0.1689729918495502     0.1402941093807532
  -0.04994996465938877    0.01874521124809529    -0.1150068911662896
    0.3884613055513312      0.112906745981606     0.1682804289505265
  -0.05882955814775687    -0.4451881381629497     0.5569436488304997
    0.5426263855392439     0.1912078991464096    -0.1350791574520811
   -0.9792278837496554     0.7898588388381195      1.137673184477128
     0.103940174922539   -0.09510013193684501     -0.105858722152263
    0.1955912120102286     -0.700277022914919    -0.2585555867101412
  -0.05350276146383469     0.0926207334872442    -0.1441414779463027
  -0.07155302393807832     0.2543493554706337    -0.1289421824014235
    0.2172653739294786    -0.1297190075971666     -0.534585613337583
  -0.06080696029099744   -0.08749666491708956    0.06531153800324309
   0.08411531436350993    -0.7173709204939673   -0.05249528760504795
    0.3313767583534996    0.05808454326659806   -0.06304231645592037
  -0.07002031090777257    -0.7071089759916832  -0.007625990216620017
   0.08505214650524388    -0.6960374524534789    -0.3693189733393801
  -0.04849319242629135     0.1800494685040807    -0.2324563164472043
   -0.2431725238386309   -0.06500639887905353     0.1355739317562437
     0.262640535761633    -0.8002524202535729     0.1898766740156128
    0.1162366275024928    -0.0977564142327712    0.04608443718131136
   -0.1842243649486132    0.02120497377659594    -0.1147754244988315
   0.02253738209693358    -0.1195703352369054    -0.2169923463394874
  -0.07268131950443063    -0.3036798099888925    -0.2825487425105701
  -0.04821352282772881     0.3251469351718956     0.6155291181700537
    -0.293590472794853    -0.1793755058463164    -0.1372258701853096
     1.256834456960274    -0.6280792684659795     -1.867778380516946
   -0.4005531089281791     0.5760003341128587  -0.007877801607711416
   -0.1241860784408353   -0.04597840593773559     0.1522562191494621
    0.2491179828992673     0.2204507074450588     0.5752503335083547
   -0.0399625534886198    0.05603442077433355    -0.1950970762908503
    0.2206965328167615      -0.46036896637254     -0.265947324518005
   0.05836958254357368     0.4025763875869604    0.06852881217174478
    -0.115842454244333    0.02772697904365699     0.7971643604163842
   -0.2898672834637371     0.2427465595042256    -0.1532660002258116
   -0.3625480416471393    -0.2161875012372663     0.2097265624308474
   -0.1368967706218402    0.08419965278965755     -0.252006418024053
   0.07636137603954347    -0.1014756302901596   -0.06316726456203386
     0.202530590547805      -0.26687884076219    -0.2333611142753144
    0.5081472826504262     0.2859448990705781    -0.1836331761573795
   -0.2641402697422934    -0.1443968520392592     0.3351330277188085
   -0.2330805255561569    0.07263364901038914     0.2203463638650383
   -0.3121198846533017      0.264170716860909     0.4640326399465725
   0.02792563562059912   0.004809378456722071   -0.05420975984840036
    0.3733909603297633     0.3985547193608468   -0.03157723860249867
    0.5432299718635497    0.04413142064270216     0.4548853258912209
   -0.2502642988358893     0.1075462782217592    -0.1007671745480925
  0.008464563008554646    -0.1509604540228454     0.1662656863847186
    0.2398558546563062    0.02272674095684901    -0.3580896337295966
    0.0385929715638152     0.4471875632759808    -0.1407192380455362
    0.6795224352275034    -0.2561310334559167      0.150509770594885
   -0.6635118058982915     0.1110960894851225   -0.02984466198705924
    0.3083112504293499     0.3782750454282575    -0.4617105580548515
  0.006112784241586747    -0.4662568499120495     0.3806974241694946
   -0.5743441441655364     0.2811904647508563    -0.4584585694084083
   -0.4252880670179335     0.2175588479078994    0.08002528762676005
    0.5978923733069199     0.1920506255582731     0.2154368051510924
   -0.1247726701135142   -0.05093810231159319   -0.06349292072189758
   -0.3324456480633899   -0.06876759627756832     0.2803616573530394
    -0.135304167701306     0.4616623862297959     0.7073936288832486
   -0.3080947022119883     0.2147477660158261   -0.07690674894227185
    0.2068492562296916     0.2776673655591574    -0.1035722660189131
    0.4150202254341857     0.1957644589444908     0.4378207091020416
    -0.616733194007247    0.05583839125753897    -0.2661481705317265
 -0.002928877956938163     0.6388006378029074    -0.4885089667236027
   -0.2370693844980283    -0.1591947133837867     0.1402291001263472
  -0.06359145920418462     0.0279900748048161    -0.1150039209911808
    0.3742480117278497     0.1223565558380571     0.1675989241826678
  -0.07253744846261449    -0.4358873753795668     0.5573193815341481
    0.5284067609829201     0.2002082057758885    -0.1356849580004411
   -0.9935820068705692     0.7993943206697437      1.138529315511209
   0.09599208837800632   -0.07872184318855217   -0.09990750207319055
    0.1811304299558799    -0.6914192146332274    -0.2583101512978498
  -0.06278185704193515     0.1021312714646208    -0.1450415359751342
  -0.08513844503024845     0.2637542842644015    -0.1281271504525484
    0.2032268306499914    -0.1204261471993857     -0.534287603941167
  -0.06721499699194283   -0.07884248389265756    0.06447559987967201
   0.06925758525314352    -0.7073577210523007   -0.05130520490096958
     0.317510605781043    0.06776891340203524   -0.06299645449617795
  -0.08361122241745392    -0.6976453145164538  -0.007421491765714831
   0.07139259650950033    -0.6868010915950507    -0.3692806157783347
  -0.06219149027345058     0.1894528827753454    -0.2324551025473967
   -0.2654791516290063   -0.05579221996617286      0.131320570519343
    0.2488595506959554    -0.7908817478387441     0.1899128057199842
    0.1022386244587618   -0.08585699867674662    0.04723358588977328
   -0.1976274982412642    0.03061757557798949    -0.1147438623752706
   0.01445607317801864     -0.109634322611964    -0.2161901962037875
  -0.08647191745336374    -0.2941396112762621    -0.2826397650388367
   -0.0619751414265667     0.3344954342545195     0.6155733380584369
   -0.3072884717133473    -0.1704224359410306    -0.1376327946416027
     1.243531716478272    -0.6189733851103103     -1.868540593967021
   -0.4149590241422104     0.5854888235250891  -0.007822934586119915
   -0.1377116486141978   -0.03664173320372411     0.1522905303473052
     0.235131812744302     0.2298700759629148      0.575080986775081
  -0.05144184324230656    0.06560730101514797    -0.1937113620714321
    0.2072204999732202     -0.451038762939675    -0.2657957951380844
   0.04471105140202606     0.4119363703388947    0.06862617838341639
   -0.1295072313179063    0.03716726353298763     0.7972566807749927
   -0.3035344623705504      0.251772294734818     -0.153380475442364
    -0.381931463892007    -0.2055917662104207      0.209233762980039
   -0.1496769627986696    0.09408409653606831    -0.2516895401398505
   0.06258055422289797    -0.0921359955168659   -0.06350613379490629
    0.1882516749058931    -0.2577486870865381    -0.2329965685809031
    0.4942842409012766     0.2954988540483104     -0.183833641399271
   -0.2775374935238851    -0.1345647340477106      0.335610610705695
    -0.247021847408978    0.08205423055676506     0.2203782296026074
   -0.3251092559338375     0.2734580859784395     0.4639834763060096
    0.0138009013066694    0.01459198758993794   -0.05472347861457277
    0.3596329031349285     0.4079843643815925   -0.03154690777589736
     0.529512249140396    0.05345816566777857     0.4548746403303998
     -0.26387412108154     0.1164510244334848     -0.100713434705322
