# vtk DataFile Version 1.0
NBODY                      1                   0.02
ASCII
DATASET POLYDATA
POINTS 128 float
    -13.24238006831751     -5.721098748597257      3.538554237042963
    -8.428465939324441     0.2867563988851002     0.1778198840963946
    -9.757666241565849      0.782961924169173     0.3458380404821267
    -7.768739103941281     0.4447772928893483    -0.5312147500621747
    -8.669734348154595    -0.5564760658762984    -0.7214260817217369
    -9.414624330580418    -0.1366754193049787    -0.9527640527618897
    -9.565832962891049    -0.5934801643464226      1.300066380558429
    -9.182487661046975    -0.2787962185068962   -0.08884509160063912
    -9.185607120001684       1.36661460148125     0.7271402242873092
    -9.163263685707395    -0.4436920411006128    -0.8411984631951517
    -9.370367785605014      4.497519194758436     -4.964234986622703
    -8.168533935513972     -2.817646492649543      1.072797658117028
    -9.237345974111951     0.4775933077831995     0.3701728565114817
    -9.265002779399374      1.348335625262424     -0.014273672077812
     -9.00613308618585     0.8458068004942246     0.4079853057062997
    -9.483694821147598     0.2397357049735392    -0.3342214470846416
    -10.25591782605279     0.2432756718626637     0.9138803605295877
    -9.178130586143926    -0.4455672048503126    -0.1731860208501211
    -8.830804654818877      4.276928419627087     -1.602373536554923
    -8.968318588822262     -1.025529046420201    -0.1058294894858405
    -10.22977399620292   -0.01207906387254933       1.18827376811857
    -9.867348527511281    -0.3718050962778653    -0.7932328729879725
    -7.582768293693442    -0.5277063116403772     -1.157754414234252
    -9.715465357091698     0.5451878310519519     0.6299301276140102
    -2.842827244680739      4.492536294867407      4.425768770335554
    -10.35741630894765     0.1517263633774341    -0.5243474546121414
    -9.873602406341302      3.119262809724452      4.945517012305856
    -8.247929695026867     0.0130661505947989      1.534618611736492
    -8.208280156862655    -0.4312944671736677     0.2367295889164614
    -8.281442451424898     -4.167410717063622     -6.529919453353667
    -10.95491376497651     -1.326480466392375     -1.418745916098693
    -9.723064798168171    -0.9512667777895559    -0.2847673917450368
    -8.949275750835939    -0.2595208806090817     0.9435387982920144
     -8.81410272578217     -1.436676800819206    -0.0597374019064459
    -9.278103202793988     -0.438796658088486     0.2092799642498669
    -5.514794025686595    -0.3062856531055093     -1.226236529787637
    -8.999207525604588    -0.8386329679397768     0.3007070751275539
    -6.817860843683427      2.252005812955888      1.024915178825778
    -9.313530065873513    -0.6168666371911129      1.049183571803938
      -8.1832596254546       3.31003074270312      5.384615909962939
    -9.759525130006468    -0.9276046013102228     0.1238414416323552
    -9.055891620920242    -0.2688120791504535     0.6632348161561515
    -8.548462473955636     -1.159105112094616     -1.157722344599431
    -8.621931729438545    -0.2234123862098261    -0.8713734518972204
    -10.58559476898655    0.07871918605098938     -0.168931123870376
    -9.352043322874113    -0.5188786997874418    -0.8751511469816974
    -8.281118544203323     0.2390179326190092    -0.2449221491168996
    -10.33241433211141    -0.9500345169608035     -3.690149117999352
    -9.260651232519269    -0.6420286441917322     -1.462153541748352
    -9.378848891630494   -0.08964901080211277    -0.8153732754023443
    -9.091939054845531     0.7577382434351858     0.6216051602651147
    -8.788598810850347     -1.036487822986236     -0.517582431655672
     -12.5481204816712    -0.7670865294842133    0.07362853176100169
    -8.716087543577453      2.151239912577061     0.4797171490588191
    -10.14971349009656     0.2716759116022868     0.9963893603205197
    -7.934477754229493     -0.770251221315106     0.4054095559773518
    -9.538076623322356    -0.3556678227566549      0.446601725423887
    -10.25830905188986     -1.475388512636294     -1.086940189979922
    -8.832548080862635     0.1607075610281223     0.0391034547488084
    -9.310262582486624    0.06786465364496014     -1.640581432276029
    -10.36797888379056    -0.7153905406386919      0.774975560147016
    -8.905416332609452     0.1648059666453449    -0.2323712100792133
    -8.718115818562072    -0.3222093760659938    -0.3721616072110888
    -10.11405150735813      1.327889352776387     0.1068309148779402
    -4.112677073737329     -5.708262002552593       3.53624137691011
    0.6960624586932431     0.2961954787524025     0.1779797632378929
   -0.6330785947719252     0.7921715353648804     0.3457918415192456
     1.355672980946814     0.4543661456164279    -0.5313883550789396
    0.4546336173597949    -0.5473671092694795    -0.7216619994498917
   -0.2900356246931109    -0.1273370549743518     -0.952650575449442
   -0.4410224193523316    -0.5840757115889574      1.299937872159296
  -0.05791307398005062     -0.269524276879657   -0.08877564751430582
   -0.0606179406863017      1.376102544594014     0.7273123494922619
   -0.0385219221737878    -0.4343098824873116    -0.8410239697212589
   -0.2404885256664884      4.506605503476032     -4.964094654443256
    0.9570494273498696     -2.809416915163036      1.073122839820752
   -0.1126992167067692     0.4869391578101581     0.3702059053622554
   -0.1400814246559019      1.357714018534268   -0.01418316102971473
    0.1186310492883632     0.8551676962430115     0.4080618954427203
   -0.3591494482265681     0.2489890944483217    -0.3340619089552035
    -1.131294670521313     0.2525563665984462      0.913577492453939
  -0.05341029045046524    -0.4362355579526172    -0.1731777679380465
    0.2971254687317647      4.286582140624769     -1.602423840661779
    0.1564203662693725      -1.01630559913239    -0.1058275601529387
      -1.1054821222996  -0.002685725147968415      1.187724631611255
   -0.7426676792972817    -0.3625280109104108    -0.7929332580319847
     1.541481955351698    -0.5186803826381924     -1.158259879790378
   -0.5911578955272297     0.5545940767948947     0.6303835588331469
     6.286552030319817      4.507600037526368      4.430639672088708
    -1.233345831592362      0.160647783181859    -0.5241417785276238
   -0.7453082472438506      3.128705551029052      4.944778896855873
    0.8768552499498408    0.02242466083478667      1.535282514329632
    0.9161263231353816    -0.4220339004160333     0.2369671573117865
    0.8492051032838791     -4.158667676198659      -6.53060063578419
    -1.831150477076402     -1.316614672100524     -1.417778172417868
   -0.5985041300309116    -0.9416881761370568    -0.2847294464855055
      0.17550421174575    -0.2501199608108444     0.9437062369718735
    0.3106293490231744     -1.427464074476592   -0.05970935992219647
   -0.1534152317209937    -0.4294451009143047     0.2092809039912278
     3.602896728014517    -0.2970886956970277     -1.229690926747982
    0.1254227651874317    -0.8293030139374621      0.300735462025591
      2.30657994542004      2.263400846641199      1.025856433152408
   -0.1885992418091099    -0.6075032259653328      1.049204484920579
    0.9460133919135449      3.319821098391812      5.385272466555663
   -0.6349067851203347    -0.9181364705655878     0.1237673104087977
   0.06875258641248652     -0.259502033808297     0.6632703342596221
    0.5762409319979617     -1.150117109386314     -1.158053692526434
    0.5029958596313716    -0.2141420821269559    -0.8717815209461031
    -1.461492396116074    0.08813518126152615     -0.168888050945618
   -0.2272458700038683    -0.5096130804016932    -0.8751554227099544
    0.8433322271454445     0.2483883520601169    -0.2450559837515966
    -1.205903281142252    -0.9405423152529466     -3.689014023582022
      -0.1357701481472      -0.63273482671185     -1.462033518497812
   -0.2541139435487332   -0.08031712139885321    -0.8152789116147783
   0.03279892347678058     0.7671282497548304     0.6216857324390831
    0.3361210856784106     -1.027436542840945     -0.517676279658872
    -3.428111509137588     -0.756737234999541    0.07320988955051588
    0.4093561891087848      2.160985575107274     0.4799739544660651
    -1.025069648741754      0.280950449424846     0.9960871243787318
     1.189736374792614    -0.7611249150219793     0.4057030452283926
   -0.4135160230395816    -0.3461953928308166     0.4464445446163434
     -1.13337572260891     -1.465676874246107     -1.086548961111572
    0.2919519993626279     0.1700744490979354    0.03912974492098854
   -0.1850014110121553    0.07712457952170197     -1.640615771651678
    -1.243633886249558     -0.705726858614509     0.7745580006010059
     0.219146977017477     0.1740861842364731    -0.2323287818004934
    0.4065536148556112    -0.3129196013094987    -0.3721749164539193
   -0.9892897756257238      1.336829934724573     0.1068763520090532
VERTICES 128 256
1 0
1 1
1 2
1 3
1 4
1 5
1 6
1 7
1 8
1 9
1 10
1 11
1 12
1 13
1 14
1 15
1 16
1 17
1 18
1 19
1 20
1 21
1 22
1 23
1 24
1 25
1 26
1 27
1 28
1 29
1 30
1 31
1 32
1 33
1 34
1 35
1 36
1 37
1 38
1 39
1 40
1 41
1 42
1 43
1 44
1 45
1 46
1 47
1 48
1 49
1 50
1 51
1 52
1 53
1 54
1 55
1 56
1 57
1 58
1 59
1 60
1 61
1 62
1 63
1 64
1 65
1 66
1 67
1 68
1 69
1 70
1 71
1 72
1 73
1 74
1 75
1 76
1 77
1 78
1 79
1 80
1 81
1 82
1 83
1 84
1 85
1 86
1 87
1 88
1 89
1 90
1 91
1 92
1 93
1 94
1 95
1 96
1 97
1 98
1 99
1 100
1 101
1 102
1 103
1 104
1 105
1 106
1 107
1 108
1 109
1 110
1 111
1 112
1 113
1 114
1 115
1 116
1 117
1 118
1 119
1 120
1 121
1 122
1 123
1 124
1 125
1 126
1 127
POINT_DATA 128
SCALARS mass float
LOOKUP_TABLE default
              0.015625
              0.015625
              0.015625
              0.015625
              0.015625
              0.015625
              0.015625
              0.015625
              0.015625
              0.015625
              0.015625
              0.015625
              0.015625
              0.015625
              0.015625
              0.015625
              0.015625
              0.015625
              0.015625
              0.015625
              0.015625
              0.015625
              0.015625
              0.015625
              0.015625
              0.015625
              0.015625
              0.015625
              0.015625
              0.015625
              0.015625
              0.015625
              0.015625
              0.015625
              0.015625
              0.015625
              0.015625
              0.015625
              0.015625
              0.015625
              0.015625
              0.015625
              0.015625
              0.015625
              0.015625
              0.015625
              0.015625
              0.015625
              0.015625
              0.015625
              0.015625
              0.015625
              0.015625
              0.015625
              0.015625
              0.015625
              0.015625
              0.015625
              0.015625
              0.015625
              0.015625
              0.015625
              0.015625
              0.015625
              0.015625
              0.015625
              0.015625
              0.015625
              0.015625
              0.015625
              0.015625
              0.015625
              0.015625
              0.015625
              0.015625
              0.015625
              0.015625
              0.015625
              0.015625
              0.015625
              0.015625
              0.015625
              0.015625
              0.015625
              0.015625
              0.015625
              0.015625
              0.015625
              0.015625
              0.015625
              0.015625
              0.015625
              0.015625
              0.015625
              0.015625
              0.015625
              0.015625
              0.015625
              0.015625
              0.015625
              0.015625
              0.015625
              0.015625
              0.015625
              0.015625
              0.015625
              0.015625
              0.015625
              0.015625
              0.015625
              0.015625
              0.015625
              0.015625
              0.015625
              0.015625
              0.015625
              0.015625
              0.015625
              0.015625
              0.015625
              0.015625
              0.015625
              0.015625
              0.015625
              0.015625
              0.015625
              0.015625
              0.015625
VECTORS velocity float
   0.02084629681098911     -0.159532601744388     0.1658553737717792
    0.1446408418220631   -0.04992125841826949     -0.416559713986818
    0.1365049681226597     0.3495227297582323    -0.1507184254375863
    0.6193272139932872    -0.3158707828581289     0.1854452188725421
   -0.7455618133836684     0.1494944336050406    0.04425888715835893
    0.5472665745727348     0.3791114344620228    -0.2967955182199408
   0.07493961764848919    -0.4533636476237518     0.2650635082791077
   -0.6025581432891614      0.210863733938419     -0.466699558683617
   -0.4159741208205684     0.1180018657871364    0.02380495164036953
    0.5372678004281718     0.1424125763215764     0.1077388369291395
   -0.1147298327074901   -0.06656335808007333   -0.05634034796249312
   -0.3264162584382079   -0.04638052022090298     0.2673421621779243
   -0.1258367894056501     0.3963347423912577     0.7137809924971853
   -0.2922721618382266     0.1103034593072477   -0.04351574011725295
    0.1507236117195156   -0.03823259009738677    -0.1409676571528825
    0.5029407302425539     0.1028854858470475     0.4746964532379797
   -0.1290756349699115     -0.232644317263942    -0.3185794523430572
   0.05985586403520327     0.7564184952520674     -0.411535169961422
    -0.225052980893546    -0.1846943850920236     0.1461071280503162
  -0.05137910012932476      0.112418603963814     -0.102161907692201
    0.4780275601231817     0.1592813664081878     0.0732872741066551
   0.08322537990292117     -0.442265940170926      0.633415430290972
    0.4850271961580759     0.2024653345478543   -0.09388105601847298
   -0.8949669829044704     0.7663960601749182      1.067460282918169
     0.104545484206761    -0.1028109973217472    -0.1126074368011726
    0.2727573539264315    -0.7471786052882655    -0.2140918024544055
  -0.04777055727916404    0.08687833588191059    -0.1532638475418383
   -0.1069724328033181     0.2498120274780765    -0.1914833971932101
    0.1347036848615353     -0.122521674980324    -0.5712320031967374
  -0.05934770772860633   -0.08298388842909608    0.07242109842831115
    0.1293739371164417     -0.698966582254765   -0.02490368934945314
    0.4124576616956294     0.1469055769480643   -0.02728074809798988
   -0.1156264079096264     -0.728763439273881    -0.1307840844727983
   0.03428591901419119    -0.5359817758598052    -0.4143528462511633
   0.04905376020341533     0.2076029950625219    -0.3089430122257831
   -0.2519915166639906   -0.06410538901798948     0.1449048645135375
    0.1936413609235729    -0.6674695959072706     0.1060675720989385
    0.1043651022416922     -0.116920177739421    0.03762067580833857
   -0.2063347645758882    0.09227792190371749    -0.2034741316005494
   0.02240943695247113    -0.1252721450772077    -0.2265045934796867
   0.01603038535412536    -0.2117777251525619    -0.3181401258105011
  -0.09375875003144844     0.3200605417849912     0.5035148165720119
   -0.3336366277749613    -0.1134572006450899   -0.06732518666948419
     1.088334605321884    -0.7822090970469967     -1.691039465098839
   -0.3019491832427013      0.580777731617426   -0.01291898424602896
  -0.05579202728665143     0.2035523659526823     0.4305053484449983
     0.152906314038262     0.1743219626771874     0.6179052026874808
  -0.03021795825067384    0.06055554449469824    -0.1719825218244093
    0.2294119231993045    -0.4221321983350561    -0.1283458945157873
  -0.05966257210791547     0.2164225850088012    0.05074530937046865
    -0.113074562274441     0.1509476747092673     0.7333295998329197
   -0.3405105574414634     0.3481428843468452    -0.1007830136612535
   -0.3307256070063985    -0.2111584055557793     0.2086601438749663
   -0.1477836726288496    0.02920203651854146    -0.2617118175251794
   -0.2907714215393368    0.07112804183355309    -0.1002587612120859
    0.1104613545756716     -0.211672500250966    -0.2738758585149472
    0.6096757430939242     0.3008981980407242    -0.2524572653074116
   -0.2298616585171571   -0.09427044990370222     0.3671562687530412
   -0.3214491978855823   0.005761435249150924      0.183946308383714
   -0.3092410992760764      0.230935484785787     0.5574698253518715
    0.1048964127385226    0.05184107603388814   -0.09133749950989414
    0.5009463940956513     0.4009207414487233   -0.03872640092305027
    0.4658187311250174    0.08457372840187886     0.4957977931685137
   -0.1951178371891448    0.03496775021169633   -0.09483896225329611
  0.008342400428507955    -0.1429022058684387     0.1611534227118241
    0.1213924930751596   -0.04014540305186362    -0.4162388585714454
    0.1134559258121177     0.3587800004646229    -0.1507663603919325
    0.5956710688007341    -0.3057678047866763     0.1850393393881578
   -0.7688982208445514     0.1586368570348722    0.04382846317221117
    0.5242903449147353     0.3885738311550546    -0.2966468114654441
   0.05242290278917613    -0.4436515649618014     0.2647851030610673
   -0.6256214729492999     0.2202753835801251     -0.466589658162979
   -0.4381645203750914     0.1278032111097075    0.02413603371089303
    0.5146666215081386     0.1520509032775134     0.1080501772144883
   -0.1269796653769204     -0.057558324488418    -0.0560246780352106
   -0.3473096244404166   -0.03900412529921245     0.2680087029279546
   -0.1487085975383186     0.4058998641453505     0.7138393472105971
   -0.3146157046311346     0.1198813363855019   -0.04333321678138288
    0.1280072787079973   -0.02861026168265347    -0.1407977245897634
    0.4798376034767046     0.1122721921993077     0.4749693623565359
   -0.1521956065507132    -0.2232438039079564    -0.3192385892461898
   0.03695799412758628     0.7659772251944287    -0.4114914027293621
   -0.2413596761103275    -0.1745799810669663     0.1460377745211666
  -0.07413174819771126     0.1217271367822137    -0.1021656391043923
    0.4545467244763214     0.1689529757156195    0.07221625424240116
   0.06027512872276553    -0.4327899883652889     0.6339832171597015
    0.4610907680941974     0.2113730700500616    -0.0950392777307526
   -0.9186116229760067     0.7760195915323607      1.068300550754227
   0.09115657181325289   -0.08143396750024087    -0.1025522584277348
    0.2486257690151861    -0.7383281925218407    -0.2136233278300693
  -0.06335126425675038    0.09665030218741634    -0.1548048199479498
    -0.129635953329577     0.2594360114385773    -0.1901429496154926
     0.111169250127559    -0.1131689356241886    -0.5707970359407381
  -0.07003135170679188   -0.07464346732617927    0.07104858613574358
    0.1048077360301368    -0.6881696288960132   -0.02295694481229389
    0.3893989974428977     0.1568978210819539    -0.0271958560815891
    -0.138306111843426    -0.7191188867664214    -0.1304360452166679
   0.01160091168946536    -0.5267503176986881    -0.4143227151427817
   0.02617396881434044     0.2171880856335031    -0.3089639801770861
   -0.2887989795966651   -0.05487402592866134     0.1380710438692238
    0.1707098349893743    -0.6579465160139292     0.1061291444838257
   0.08092118846533097      -0.10314234438305    0.03957514731028972
   -0.2287171990739752     0.1018950405862592     -0.203471749599748
  0.008829732754326613    -0.1147890171618832    -0.2251487547489186
 -0.006966178943053031    -0.2019323241217348    -0.3182895527776229
   -0.1166831528331898     0.3295675412615716     0.5035842009785811
   -0.3563402181887585      -0.10461169536019   -0.06799205600087667
     1.065949175854046    -0.7727416244180726     -1.691934988380871
   -0.3261601430549891     0.5903968343899254   -0.01283127658858525
  -0.07855989160177364     0.2128916198650317     0.4304836200395971
    0.1294816401836364     0.1839760770331755      0.617668903547442
  -0.04927992750903148    0.07041169419643473    -0.1696287872301594
    0.2070351420941149    -0.4126774437191361    -0.1281311554794825
  -0.08244368884236344     0.2260068584142275    0.05103299574152995
   -0.1357478461779598     0.1606157958748303     0.7335202968290252
   -0.3632789145233771     0.3571597325072323    -0.1009801226502122
   -0.3635925424650114    -0.1993088195178912     0.2076336354890485
   -0.1690791316967097    0.03956222128570224    -0.2612103528156665
   -0.3137848804535867    0.08054714460042525    -0.1009046166555652
   0.08656531626283467    -0.2026165076422628    -0.2733076987540626
    0.5865956192218208     0.3106624167346711     -0.252712404511928
   -0.2522812161189435   -0.08387709009765011     0.3679725663434356
   -0.3446631926483602    0.01536118016009274     0.1840109996750941
   -0.3310312665550144     0.2403302143543912      0.557469993361555
   0.08133626845539309    0.06205871301852998   -0.09217727088975201
    0.4777752387075989      0.410337864459191   -0.03859680155319934
    0.4428478499746357    0.09399707837357199     0.4957446664625306
   -0.2178572374910264    0.04363112816864283   -0.09473123996714736
