# vtk DataFile Version 1.0
NBODY      1.400000000000001                   0.02
ASCII
DATASET POLYDATA
POINTS 128 float
    -13.23314489592532     -5.783954087501715      3.604283360564823
    -8.382177089628222      0.256035948658778  -0.005174162123666467
    -9.691032381034178     0.9088883987276778     0.2880743280600072
    -7.534310035767979     0.3117989677004575    -0.4521995276214745
    -8.988952566219627    -0.4829855091688062    -0.6941722528846573
    -9.193753794895235   0.005322192129395165      -1.01777547094477
    -9.527654329205953    -0.7660493179063137      1.384213728266451
    -9.389230503805774    -0.2198764182035778    -0.2915242920384262
     -9.35141250368712      1.396504199632631     0.7273849246619422
    -8.960273493203356     -0.387175991502223    -0.7763330430425218
    -9.415740812560857      4.469659254126291     -4.985379516850575
    -8.300130744161748     -2.830499164714256      1.177153847568972
    -9.282434712203719     0.6335531938507353     0.6504882058128589
    -9.381095897453942      1.375761303883654   -0.02527539769816672
    -8.958701777670635     0.8106146102018696     0.3558703833636168
    -9.269609823409825     0.2622789395906685     -0.138222296897079
    -10.26201328185395     0.1708617740011175     0.8239595937086742
    -9.177358984224693    -0.1164256609532923    -0.3135601064303452
    -8.920354218644828      4.199974348581996      -1.54278843954365
    -8.991549049525165    -0.9609025757024175    -0.1491604638103462
    -10.02994745390323    0.06091865477754015      1.193859785056705
    -9.811017245181835    -0.5435989397293723    -0.5298245097856066
    -7.398441153174974    -0.4447725029949608     -1.188519381643371
    -10.06427112904696     0.8412506530713755      1.044412319039145
    -2.800878290557157      4.449923770327267      4.379424737477626
    -10.23310969149363    -0.1513861783626514    -0.6008633477110831
    -9.891614064816848      3.152885092536938      4.882462097915276
     -8.29763783765603     0.1116399407752914      1.446293933276557
    -8.170854199410211    -0.4765947671208736   0.003353688065203265
    -8.304900531755091     -4.199739881951694     -6.499602537643748
    -10.89505346493556     -1.601937145951787     -1.423409279031941
    -9.544736145552362    -0.8751800408889998    -0.2874420767387611
    -9.011155029865307    -0.5425706288691603     0.8637640738799915
    -8.805576395079841     -1.628000755518553    -0.2270110334559981
    -9.255502696369451    -0.3438015572289548    0.07491264097492005
    -5.617618067272019    -0.3317049877802906     -1.166490853786219
    -8.927343628650293     -1.087495768204282      0.327943651667122
    -6.778353405682974      2.201654650583415      1.038320837559934
     -9.39318578202713    -0.5679640776229925     0.9538090200157513
    -8.174323712554092      3.258834610447045      5.292176115977701
    -9.736352930982596    -0.9953740282450301   -0.01347281074704295
    -9.095129235927974    -0.1487858458719284       0.85672110660539
    -8.688950779507717      -1.19080142257037     -1.171879385162244
    -8.201120943665879     -0.539900334878479      -1.52941921704894
    -10.68847355086407     0.3075269510542799    -0.1744959328085529
    -9.351831407205108    -0.4180202664432021    -0.6870172085918103
    -8.247006737042442     0.2980964313728321    0.01378682311996346
    -10.34268186419942    -0.9250465695529387     -3.754719573744055
    -9.166236949365395    -0.8027448732307276     -1.492694321263193
    -9.387290054355784   -0.02614105672132799    -0.8110478015621957
    -9.141528186839539     0.8054797492153946     0.8898583928105356
    -8.933305876481931    -0.8759656986495733    -0.5478923125224349
    -12.67481776683552    -0.8505726864565929     0.1568263139088182
    -8.777354527187459      2.152376827011567     0.3737192928592518
    -10.28094324058849     0.2652375763163403     0.9095024995997868
    -7.905711188078552    -0.8449523767861654     0.2884627993847478
    -9.276137282043054    -0.2351339872004057     0.3279952463549481
    -10.34363679270261     -1.504159525769914    -0.9353511721616629
    -8.966981138421174     0.1535439884335479    0.09806426794147967
    -9.430499141204578     0.1521190861397825     -1.397721179094852
    -10.31204998978839    -0.6860647355760935     0.7319856074395641
    -8.712639354302739     0.3066448181748484    -0.2303859610923787
    -8.551318127292399    -0.2858039452855095     -0.171330328384423
    -10.18097653761216      1.328883297847699     0.0710691464259107
    -4.109364998031758     -5.763911359694871      3.599736872485665
    0.7312364813753869     0.2694291905894804  -0.004872824326496879
   -0.5774152572101291      0.921809724110718     0.2880023871761143
     1.578761462257859     0.3255065588263046     -0.452577251815384
    0.1243193831232476    -0.4701468893502236    -0.6945963791493714
  -0.08004921213255835      0.018472020018199     -1.017579951328959
   -0.4135360746535492     -0.752710272133843      1.383944718390409
   -0.2756549543441786    -0.2067647254744056    -0.2913859207872654
   -0.2369829112391839      1.409946482420534     0.7277072586578085
    0.1537070413882493      -0.37398739726859    -0.7760487075974483
   -0.2916938406622495      4.482328905013384     -4.985080710686293
    0.8155382407771735     -2.819428185964162      1.177795663461524
   -0.1686710575581249     0.6467439969116001     0.6505448980348292
   -0.2668087948065416      1.388987307261567   -0.02510046603259477
    0.1552504488759416     0.8238709721277121     0.3560267183160383
   -0.1560517002001955     0.2753107930763546    -0.1379454832305775
    -1.148424058722873     0.1839021666580744     0.8233387681282583
   -0.0635422965701202    -0.1032842106436272    -0.3135443839453409
    0.1997888549089969      4.213725966771117      -1.54286297369114
    0.1223523552723846    -0.9479423000820544    -0.1491612462138612
    -0.916793465234872    0.07424594944334423      1.192796278768755
   -0.6972866935714428    -0.5304996304901656    -0.5292703441075235
     1.714355953615991    -0.4321980883497022     -1.189612947234979
   -0.9511803121984158     0.8544960263483258       1.04518296948911
     6.322091125077409      4.474513794143234      4.389118051715829
    -1.120525387797908    -0.1388941056894427    -0.6004329172569808
    -0.770766761910239      3.166287980621269      4.880980521337159
    0.8163541711531516     0.1248941482065545      1.447589460742694
    0.9423208347981444    -0.4635872604223773   0.003775544890932797
    0.8206599812339395     -4.187719254021887     -6.500932052235751
    -1.782931055764769     -1.587585127440446     -1.421530152931767
   -0.4311458227076677    -0.8615557498261496    -0.2873632584895192
    0.1028194683353081    -0.5293019654879747     0.8640986017443221
    0.3083774121539772     -1.615103321144707    -0.2269783514868189
   -0.1417315512672807    -0.3305739583659941    0.07489372640806004
     3.482637311796505    -0.3188179102388392     -1.173135659032903
    0.1863848174012232     -1.074337538499181     0.3280032288045932
     2.334898778309356      2.218920765384098      1.040200891157813
   -0.2789252390816188    -0.5547086630705913     0.9538219187861975
    0.9484572556990449      3.272924075397268      5.293483011676593
   -0.6226816897968919    -0.9819039681041097   -0.01362088011695792
   0.01860959193466762    -0.1356266972664817      0.856788377699075
    0.4249729485334799     -1.178294463984161      -1.17252511468126
    0.9131145654920132    -0.5268206274155816     -1.530247381009924
    -1.575943095679388     0.3207906995089335    -0.1744040753584126
   -0.2378766306601421    -0.4049870666147319    -0.6870029907663232
     0.866295548731374     0.3113846396006831    0.01355922426397808
    -1.225230031267238    -0.9115591906952791     -3.752452995745377
  -0.05199171731810935     -0.789646769018719     -1.492483743185869
   -0.2734306900909554   -0.01295436751009444    -0.8108374427561891
  -0.02757193867103134     0.8187793143703085     0.8900359842384156
    0.1805731740946892    -0.8633021723930026    -0.5480779427354402
    -3.570591031023673    -0.8352082626077821     0.1558638931012667
    0.3379511309357729      2.166354343910024     0.3742075487557383
    -1.167285152919709     0.2783008572116439     0.9089156415616099
     1.207108440341355    -0.8322257443416141     0.2890127884676009
   -0.1625542681924392    -0.2217287544666449     0.3277269769675998
    -1.229398851877679     -1.490170223221258    -0.9345672618814048
    0.1464751543378046     0.1667811827476827    0.09812335639206465
   -0.3156529107358853      0.165154704297972     -1.397735951807672
    -1.198923008112558    -0.6722332791150726     0.7311738564268193
    0.4008938164087914     0.3197325581130744    -0.2302878493249291
    0.5623866576477418    -0.2727206591753789    -0.1713614789163606
    -1.067054141461494      1.341234076512703    0.07117037632273782
VERTICES 128 256
1 0
1 1
1 2
1 3
1 4
1 5
1 6
1 7
1 8
1 9
1 10
1 11
1 12
1 13
1 14
1 15
1 16
1 17
1 18
1 19
1 20
1 21
1 22
1 23
1 24
1 25
1 26
1 27
1 28
1 29
1 30
1 31
1 32
1 33
1 34
1 35
1 36
1 37
1 38
1 39
1 40
1 41
1 42
1 43
1 44
1 45
1 46
1 47
1 48
1 49
1 50
1 51
1 52
1 53
1 54
1 55
1 56
1 57
1 58
1 59
1 60
1 61
1 62
1 63
1 64
1 65
1 66
1 67
1 68
1 69
1 70
1 71
1 72
1 73
1 74
1 75
1 76
1 77
1 78
1 79
1 80
1 81
1 82
1 83
1 84
1 85
1 86
1 87
1 88
1 89
1 90
1 91
1 92
1 93
1 94
1 95
1 96
1 97
1 98
1 99
1 100
1 101
1 102
1 103
1 104
1 105
1 106
1 107
1 108
1 109
1 110
1 111
1 112
1 113
1 114
1 115
1 116
1 117
1 118
1 119
1 120
1 121
1 122
1 123
1 124
1 125
1 126
1 127
POINT_DATA 128
SCALARS mass float
LOOKUP_TABLE default
              0.015625
              0.015625
              0.015625
              0.015625
              0.015625
              0.015625
              0.015625
              0.015625
              0.015625
              0.015625
              0.015625
              0.015625
              0.015625
              0.015625
              0.015625
              0.015625
              0.015625
              0.015625
              0.015625
              0.015625
              0.015625
              0.015625
              0.015625
              0.015625
              0.015625
              0.015625
              0.015625
              0.015625
              0.015625
              0.015625
              0.015625
              0.015625
              0.015625
              0.015625
              0.015625
              0.015625
              0.015625
              0.015625
              0.015625
              0.015625
              0.015625
              0.015625
              0.015625
              0.015625
              0.015625
              0.015625
              0.015625
              0.015625
              0.015625
              0.015625
              0.015625
              0.015625
              0.015625
              0.015625
              0.015625
              0.015625
              0.015625
              0.015625
              0.015625
              0.015625
              0.015625
              0.015625
              0.015625
              0.015625
              0.015625
              0.015625
              0.015625
              0.015625
              0.015625
              0.015625
              0.015625
              0.015625
              0.015625
              0.015625
              0.015625
              0.015625
              0.015625
              0.015625
              0.015625
              0.015625
              0.015625
              0.015625
              0.015625
              0.015625
              0.015625
              0.015625
              0.015625
              0.015625
              0.015625
              0.015625
              0.015625
              0.015625
              0.015625
              0.015625
              0.015625
              0.015625
              0.015625
              0.015625
              0.015625
              0.015625
              0.015625
              0.015625
              0.015625
              0.015625
              0.015625
              0.015625
              0.015625
              0.015625
              0.015625
              0.015625
              0.015625
              0.015625
              0.015625
              0.015625
              0.015625
              0.015625
              0.015625
              0.015625
              0.015625
              0.015625
              0.015625
              0.015625
              0.015625
              0.015625
              0.015625
              0.015625
              0.015625
              0.015625
VECTORS velocity float
   0.02554771012775367    -0.1545046046445586     0.1626327268054272
    0.1382709934199985   -0.09096254884690357      -0.50476864590487
    0.1977827083014042     0.2813497005989626    -0.1403385023954474
    0.5507715594171264    -0.3482680592487424     0.2088795183216851
   -0.8636509568326101     0.2657747116837739    0.05502184543582475
    0.5356002895268945     0.3180945687221626   -0.05330191942213749
    0.1129716103171308    -0.4049023462262388     0.1547755269500374
   -0.4014347336358441     0.1310720556537322    -0.5300278662652725
   -0.4117741523437708    0.02712312672906648   -0.02328748975091452
    0.4881083152020542    0.08973804905283413     0.2717205682173254
   -0.1119905090862276   -0.07305103870120658   -0.04901556102418359
   -0.3316004155811858   -0.01647883437212031     0.2535734247330791
   -0.0958155224415628     0.3835197314144262     0.6828912984953284
   -0.2877262193631818    0.02315711136790375   -0.00975198169280527
   0.08748660341654003    -0.1372279973692244    -0.1266609323898963
    0.5704334428516785   -0.00232133331741914     0.5038098263679797
   0.05993027013740813   -0.08381494683713038    -0.1110774341746292
  -0.07561513270115991     0.8284792392767356    -0.3072977360998669
   -0.2225285997693275     -0.200989449330361     0.1521631839312611
  -0.06854128903597037     0.2158792350263547    -0.1186663001401763
    0.5147183218619489     0.2001747885974737   -0.04900151007309844
    0.2050818825126259    -0.4117173650850777      0.685522219550968
    0.4349518234221496     0.2120394901230988   -0.05947700161726568
   -0.8475790472959089     0.7063889467547022      1.004175167942635
    0.1052532039314174    -0.1106721751059994    -0.1194783508057339
    0.3585848382013037    -0.7669434065067879    -0.1686889660821345
  -0.04199226156284507    0.08089089778698287    -0.1624934214537263
   -0.1437146811079772     0.2424346031238867    -0.2532327016576912
   0.04495560789916096   -0.09912438664028121    -0.5945665355955148
  -0.05786380945464198   -0.07842582373055704    0.07951685244023164
    0.1711815897063978    -0.6763810062823344   0.003061060035974752
    0.4778059226558405     0.2392268610807531    0.01378491628965617
   -0.1952223441998046    -0.6721566889540782    -0.2564925596772399
  0.008954668980107256    -0.4204443046469268    -0.4188947666962359
   0.06296965165098643     0.2749777451339068    -0.3563866883068418
   -0.2631085488407919   -0.06287141389690544     0.1542929335753395
    0.1654749827417625    -0.5722303342076799     0.0290767279886596
   0.09259308548743755    -0.1357228947077272    0.02894358775777182
     -0.17977338116664     0.1524860945174947    -0.2776719996912618
   0.02225873653055664    -0.1310012011824647    -0.2362154481354636
    0.1065266896570592    -0.1195429762806074     -0.372492482650205
   -0.1055359728124662     0.2720007046888911     0.4462772936171746
   -0.3691269407686079   -0.04091385005577922  -0.001767858782682875
     1.023066005308892    -0.7917089139232368     -1.603994847324412
    -0.212019488477062     0.5603998598013585    -0.0104484894629802
   0.05350612621066068     0.2924198837076842     0.5154708597900586
  -0.04642785089216379     0.1032528929971813     0.6760697777793835
  -0.02066454330092637    0.06449040308010916    -0.1499416090856174
    0.2439562870948051    -0.3807435621459898   -0.02263875231990808
   0.03527129424976656     0.1093745996432704    0.01098699823370022
   -0.1406082356466399    0.08149061003758841     0.6067899750667115
   -0.3857601125932609     0.4622681354794664   -0.04770905014725676
   -0.3017494227940781    -0.2060012969498883     0.2072013744398957
   -0.1591388269385203   -0.02635489556765267    -0.2680389731610772
   -0.3130974837363445    -0.1396929177664707     -0.352621736988687
   0.03095764543969417    -0.1595904067907961    -0.3119790741838694
    0.6926626902296649     0.2978235688395338    -0.3553229539226769
    -0.194551140119151   -0.04803138140060385     0.3906715552611972
   -0.3509919092085416    -0.0443530743508818     0.1100972495841205
   -0.2862826932015877     0.1860893596744575     0.6656843436343756
    0.1779802594379575    0.09685132129492595    -0.1250382755559425
    0.4568717192171333     0.3029446641965508    0.04681708012582604
    0.3665898079438548     0.1022099477786757     0.5090071371963968
   -0.1361319854861244   -0.03206374484768221   -0.08271065370901445
  0.008209764282039273    -0.1349679561842602      0.156075754878115
    0.1054812641284641   -0.08098230026588814    -0.5045964496125049
    0.1655276464823792     0.2906334981598404    -0.1404165209164887
    0.5171736481494603    -0.3377617095345456     0.2082521979019544
    -0.896007462131042     0.2757803357996741    0.05465430233605803
    0.5036616572226936     0.3276907219119488   -0.05304806967621904
   0.08159188344572317    -0.3949225298114432      0.154335143373906
   -0.4339419561625231     0.1407928534771803    -0.5297736525976702
   -0.4428294101320303    0.03709054685094269     -0.022868486977925
    0.4561686934092727    0.09870546884300029     0.2718231839585893
   -0.1291493622840845   -0.06414978975971601   -0.04852563508813052
   -0.3606746529749147  -0.009663416019106454     0.2545013992330695
   -0.1278129146061069     0.3931788557841373      0.682941682947685
   -0.3190052644143446    0.03280925025286743   -0.00951377684763809
   0.05567875083987298    -0.1273651345155688    -0.1264343374824928
    0.5381495896897834    0.00719513812528646      0.504120527147239
   0.02745121851911374   -0.07443129722954789    -0.1120150991871167
   -0.1075894602677269     0.8380508570500879    -0.3072998375791473
    -0.245507218363155    -0.1906138751691871     0.1521168074908864
   -0.1004363200705851      0.225259770958425    -0.1186712760973184
    0.4820256119949182     0.2101830469165029   -0.05052423357900249
       0.1728169450576    -0.4020864381510162     0.6862266784395858
    0.4010910014180584     0.2208741679133893   -0.06131795354576602
   -0.8804618361948396     0.7159677095116344      1.004873170747895
   0.08629048813240123   -0.08412912921626226    -0.1051853568189921
    0.3248087139277732    -0.7579100609414805    -0.1680337910864952
  -0.06398671932837817     0.0909352317059562    -0.1647092299595278
   -0.1754731751718653     0.2523054565668586    -0.2513960985758802
   0.01184011628950316   -0.08974202795179571    -0.5941074082546888
   -0.0728313621399528   -0.07039250189437471    0.07762450986654684
    0.1371057121358088    -0.6646868657704537   0.005692243087792231
    0.4455385108150564      0.249466340796635    0.01389574404842493
   -0.2270548547326148    -0.6624521481477946    -0.2560325315318039
  -0.02268821246839877    -0.4112610393984494    -0.4189099286816382
   0.03077542426304062     0.2848003214490772    -0.3564523004570235
    -0.314148588695533    -0.0536597447425344      0.145093265751442
    0.1334517915671445    -0.5626164574796471    0.02916824053960256
   0.05959776018890427    -0.1200482017949829    0.03172829199724748
   -0.2111918594112663     0.1623436198357289    -0.2777200605742206
  0.003080801070632471    -0.1199586781695927     -0.234287726513841
   0.07433097836179375    -0.1093516725386584    -0.3727180762999956
   -0.1375841350698189     0.2817311474545685     0.4463992285816796
   -0.4007600488400775    -0.0321668489564013  -0.002681477942880181
    0.9915560787606308    -0.7821666432173348     -1.605260346598189
    -0.246191798080499     0.5700045786558321    -0.0102817501508932
   0.02162223217976281     0.3019152820899246     0.5155667196833824
  -0.07925501787399519     0.1132238366015534     0.6760508190952723
  -0.04727071935796954    0.07462257948580478    -0.1465809220302944
    0.2127118325626368    -0.3711756237224211   -0.02240835050713499
  0.003266478793313518     0.1190680604609933    0.01126532664936759
    -0.172285113054093    0.09138873661531766     0.6070972938721338
   -0.4176583408600592     0.4713188638078736   -0.04796528795213558
   -0.3485700268738711    -0.1926600884412122     0.2054345080071134
    -0.188963931723335    -0.0155357513349129    -0.2673805008085981
   -0.3455357055257373    -0.1301621962176779    -0.3533833140923824
 -0.002610777942330406    -0.1506580731270754    -0.3112704309606191
    0.6604084869262162      0.307714329164302    -0.3556448186119068
   -0.2260820743650251   -0.03698752064628692     0.3918353285437402
   -0.3834623089487978   -0.03459754993760544      0.110195362963002
   -0.3170511555771267     0.1955707344961393     0.6658104825567234
    0.1449773755821996     0.1074901932058989    -0.1261802615808304
    0.4244245114486609     0.3125812953487221    0.04696351650777281
    0.3342575141840624     0.1117511676071491     0.5089727779116093
   -0.1680588308810715   -0.02369805593962431   -0.08253516216173037
